<?xml version="1.0"?>
<VTKFile type="UnstructuredGrid"  version="0.1"  >
<UnstructuredGrid>
<Piece  NumberOfPoints="758" NumberOfCells="1386">
<Points>
<DataArray  type="Float64"  NumberOfComponents="3"  format="ascii">-1.570796326794897 3.048 0  -1.570796326794897 0 0  1.570796326794897 0 0  1.570796326794897 3.048 0  0 0 0  0 3.048 0  -1.570796326794897 1.524 0  1.570796326794897 1.524 0  -0.04609926118424437 1.524 0  0.7853981633974483 0 0  0.7623485328053261 2.262242601661362 0  -0.7853981633974483 0 0  -0.7853981633974483 3.048 0  0.392699081698724 0.7745759241961347 0  -1.570796326794897 0.762 0  -0.8084477939895706 2.0955 0  -0.68277245543452 0.8915343570675713 0  0.7853981633974483 3.048 0  0.778743707341909 1.468410948960538 0  2.780093748954961e-16 2.285302774973185 0  -1.570796326794897 2.286 0  1.570796326794897 0.762 0  1.570796326794897 2.286 0  -0.9375370967763674 1.47348297960658 0  0.9831575747762593 0.9003629142671278 0  -0.3926990816987241 0.4064697549061488 0  1.177419588818055 1.905 0  0.3692901340097942 1.880893989147954 0  -0.4920225169641509 2.564371687128368 0  0.3926990816987241 3.048 0  1.178097245096172 0 0  1.155705348811136 2.643920532523289 0  -1.178097245096172 3.048 0  -1.178097245096172 0 0  -0.1391296372266528 0.8873724190154949 0  -1.10527745318919 2.528282743051346 0  -0.9817477042468103 0.4742759268549471 0  -0.3416666987802651 1.923944646262223 0  -1.570796326794897 1.905 0  -1.156555306160469 1.030861936336814 0  0.7648449098493205 0.4764142032227 0  0.3926990816987241 0 0  -0.4820376416180818 1.326151321396512 0  0.06374421723344185 0.4545169930886408 0  0.1972735722393064 1.163324878565267 0  0.3900417218314142 2.566922767651637 0  1.570796326794897 0.381 0  1.188877612935585 1.295195418509834 0  1.179914028402171 0.5308585702661928 0  0.7660075594126428 1.865233039449035 0  0.6330293131838399 1.095171663968746 0  -1.201232463242587 2.144287146570887 0  -0.3926990816987241 0 0  -0.3926990816987241 3.048 0  1.178097245096172 3.048 0  0.7684409382397209 2.649499271873753 0  -1.236954997304436 1.7145 0  -0.1088573452899617 2.666651387486592 0  -1.570796326794897 1.143 0  -1.570796326794897 0.381 0  1.570796326794897 1.143 0  1.570796326794897 1.905 0  1.570796326794897 2.667 0  -1.570796326794897 2.667 0  -0.6730839067294777 1.743003792473746 0  1.199831389396789 2.275437921225198 0  0.3936837537618041 1.495643752599615 0  0.01539369169800942 1.928544709491661 0  0.4156551272669651 0.4219033286010089 0  0.3401546043708642 2.225103550856524 0  -0.3379897306391274 2.262671266279809 0  -1.23624174049596 0.7000907110925838 0  -1.265224057170889 1.360131453617764 0  -0.1224339018241312 1.210043725539656 0  1.289286200625578 0.9918698881707442 0  -0.7751142346211329 1.197848666814478 0  1.003546186550495 0.2660297686099683 0  0.1963495408493621 2.808538634159524 0  -0.8079023568959116 2.703551618159924 0  -0.3480226984353056 1.610059855391589 0  1.075147893506229 1.598068412087719 0  -0.8290627893979112 2.399544545867518 0  0.6965048925255637 0.7972100472372819 0  -1.257765094876752 0.3107645483825858 0  -0.6724835324263325 0.5684215760013651 0  -0.3995059642389676 0.7173610149075536 0  0.9136951972244611 1.187564504803626 0  -0.964259350608907 0.8095514380783081 0  -0.7565990314517038 0.2897049735129544 0  -0.9603859887840651 1.834914433810327 0  -0.1457055965762301 0.2521630699436873 0  0.1963495408493621 0.2041911848053476 0  0.6241974196550791 0.231695999252114 0  -0.4098815011312292 1.029160072548571 0  0.9592800715482012 2.452820690856482 0  0.9648684169153161 2.840751931000357 0  0.5890486225480862 3.048 0  0.164631037784102 1.698913854044779 0  0.5664480837073581 2.070920238540226 0  1.374107957806476 1.7145 0  0.9861079629544779 2.102471438422718 0  -1.374446785945534 3.048 0  -1.288827800789186 2.762781313597598 0  1.353232957571468 2.835634774483438 0  1.302158670506274 0.2650078124691045 0  0.1394669809465775 0.8907702620243092 0  -0.5631487221059602 2.830992231257464 0  1.372837635547072 2.483038902756259 0  -0.1493395228831287 0.618617259260858 0  -1.32327048447753 2.378769394323546 0  0.56080204725298 1.699622905297025 0  1.570796326794897 2.0955 0  0.5403456747786348 2.786446773498672 0  -0.9817477042468103 0 0  -0.5847039960246873 2.326882432521036 0  0.1225428891326576 2.526494255738436 0  -0.9817477042468103 3.048 0  -0.5522901559753841 2.071668786267058 0  -1.370864794258017 0.9075071715671403 0  -1.043891045637083 1.250611220450313 0  -0.1652643923634778 2.09141301924679 0  -1.044446740946883 2.764982067459552 0  -0.1610370079820225 1.763280243096074 0  -0.3136912237752232 2.810498886211121 0  0.5400974078002052 2.370472734822523 0  -0.7009161718414544 1.427243880175582 0  0.902907438200502 0.6735032943420574 0  -0.9879196222361604 0.2371379634274736 0  1.319268546233604 0.7412771512308228 0  0.5578373583610097 0.608241627784878 0  0.5756483102040615 1.332636919938113 0  -0.5281701577409 0.2032348774530744 0  -0.266729509930448 2.489223923247521 0  -1.570796326794897 0.5715 0  -0.2430656531629531 1.405631921096758 0  0.253622337931223 0.5884397663452474 0  1.284044721043478 1.50372037617638 0  1.570796326794897 1.3335 0  -0.9904333867980613 2.235882060371517 0  0.9871146764618406 1.395690276854986 0  -1.374446785945534 0 0  0.3981951765262902 1.020833864419675 0  0.1670583512016766 1.405384478716078 0  -1.330327693484763 1.938638984813805 0  0.2106653067452682 2.040805097078886 0  1.570796326794897 0.5715 0  1.334822181490566 2.081373939821734 0  -0.9303227889097604 1.033236710715967 0  -1.34639228476592 1.150776798768373 0  -1.570796326794897 0.1905 0  1.106697207481837 1.099709897393925 0  0.4137866939027022 0.2104288000383385 0  -1.570796326794897 2.0955 0  0.9761377489246634 0.4754251272674608 0  1.377108465632662 0.4605024587280874 0  1.108114944719677 0.7297638044096917 0  0.3695908229138113 1.285681859811955 0  0.9799112840676307 1.800306505551499 0  -0.001696842075803034 1.042028929293442 0  1.366537356420357 1.185723700290463 0  -1.385029840108318 0.47625 0  0.05842649915411911 0.6874537157920781 0  -1.183268988745763 0.4997334438341218 0  -0.6073502281622543 1.081347079085406 0  -1.026941765261019 2.031536576622642 0  -1.570796326794897 2.8575 0  0.8159726599830506 1.011928543199529 0  0.7652782693277244 2.849245002237192 0  -0.5252326280373281 1.520125074885265 0  0.7648326174724897 2.063743853392348 0  0.757099741434616 1.666331708950521 0  -0.1963495408493621 3.048 0  -0.005410422648647092 2.843333256403111 0  -1.395368347654653 2.19075 0  1.374446785945534 0 0  0.9817477042468103 3.048 0  0.1963495408493621 0 0  -0.1963495408493621 0 0  0.5890486225480862 0 0  0.1963495408493621 3.048 0  0.9817477042468103 0 0  1.374446785945534 3.048 0  -0.5890486225480862 3.048 0  -0.5890486225480862 0 0  -0.06865319188571758 2.471928549109083 0  1.159049337209348 2.838090892449816 0  0.5817075150535711 2.596909954318943 0  0.7656515661107315 2.455866896253367 0  0.9620790410056582 2.647119292933887 0  0.3676829480103987 1.68739481709134 0  -0.8886101495223063 2.878912500124773 0  -0.3317793704126089 0.1873756770788371 0  -1.383208664444332 2.577695923010364 0  -1.043597917648523 1.648216005744782 0  -1.362178343413552 1.546177620526679 0  -1.570796326794897 1.7145 0  -0.8462722504471433 1.648434957877788 0  -0.588076822054871 0.3899352838051667 0  1.570796326794897 2.8575 0  -1.570796326794897 0.9525 0  1.570796326794897 0.1905 0  1.570796326794897 1.7145 0  1.570796326794897 0.9525 0  -1.570796326794897 1.3335 0  1.570796326794897 2.4765 0  -1.570796326794897 2.4765 0  0.8103777117362174 0.287468585434799 0  -1.145334531235929 1.881885620422454 0  -0.8620560674467429 0.6361265362229395 0  -0.321688879263093 1.207848147265888 0  -0.7798551871678058 1.904240998338365 0  -0.4724954359209014 1.769587110195458 0  -0.667402576232105 2.495985359319255 0  0.5365063314111709 0.8945566719544227 0  0.1855702280441107 2.342745654422604 0  0.55510120733165 1.88540118775351 0  1.188295809121239 2.460939894898248 0  1.38587897409014 2.260870763688798 0  1.383978812419919 1.901097375082534 0  -0.2265735189171196 1.049795314962436 0  0.7387890113368257 1.246392780742437 0  0.5763234466275948 1.516457524623135 0  -0.203279258075353 0.4348372558382012 0  -1.179202350299698 1.523245956950107 0  -1.151844216720993 2.318990544544152 0  -1.410806081599612 0.6547540757597369 0  0.04190096621848406 2.108399609871347 0  0.5925649981629265 0.4343292987553075 0  0.2371113691258682 0.4102816185532077 0  1.334103818253725 2.657728219912091 0  0.9405077369493808 2.275181409651143 0  -0.633962040105568 2.669303984283053 0  -0.6045614816381242 1.904349918307267 0  1.159697673803787 2.079238591118184 0  -0.004643801590645341 1.347662554528907 0  0.3691400131247499 2.395423267764724 0  0.3855005143298051 2.055603978165229 0  0.01839821075864462 0.1788084577298442 0  -0.9568120219060965 2.61629404172056 0  0.1783135820912846 1.871116340262054 0  0.3649950158263953 2.745288921627024 0  -0.3142054567155264 0.5671999812317062 0  -0.4933549623779417 0.564740705097546 0  0.06092775470575962 2.685867440722903 0  -0.1801827362748675 2.337517890002858 0  -1.063355415037434 0.6386189748554 0  -1.205242865599393 0.8676070232612285 0  -0.4176020549597784 2.412196127179313 0  -0.3347051678178828 2.093252344225509 0  -1.427772711006951 0.2857500000000001 0  0.8835729338221293 0.1362887052191026 0  -0.6831011505337878 0.1389086130988801 0  -1.403875662049666 1.77648180985222 0  1.394165436236593 1.362588987767805 0  -0.5007942298153729 0.8700626692351643 0  -0.6093220848169366 0.7321530406295067 0  0.007534593095922887 1.760126887057542 0  -1.276272015520854 0.140425968067263 0  -0.7270478511000733 2.847016806985676 0  1.436331331726002 0.85725 0  -0.1770320080670663 1.927167796173981 0  0.7200726153501196 0.6345534912379586 0  -1.099983122078282 0.3577316115390257 0  0.2324759135153202 2.648405702327079 0  0.9054371869972004 1.582409569434113 0  0.5000672234640285 1.188708149930449 0  -0.340793734207542
[...]
<PointData  Vectors="phi"> 
<DataArray  type="Float64"  Name="phi"  NumberOfComponents="3" format="ascii">-1.1464397599905893e+00 3.0286087905591721e+00 -1.4749870607526196e-05  -1.0160111051319722e+00 -3.4980840218779448e-08 -9.2807464494526478e-06  1.0160112140443480e+00 -2.8042961744699475e-08 -1.1117952418020810e-05  1.1461882511360473e+00 3.0286396524112926e+00 -6.7295569252607983e-06  -5.9732242224608416e-06 3.7492827082228296e-08 1.0160144444307704e+00  2.3774241497222251e-04 2.8829273372558504e+00 3.0610919658657038e-01  -1.0514330885845982e+00 1.5126567017004893e+00 -1.7739706789215707e-05  1.0514258888462342e+00 1.5126610686702526e+00 -2.5825984479491270e-05  -4.6877777571409637e-02 1.5333392582791197e+00 9.3495369253213778e-01  7.1842706501093379e-01 2.3668542371146165e-08 7.1841685682696477e-01  7.5063255246150495e-01 2.2634610412181106e+00 7.1122933251223019e-01  -7.1842435467120802e-01 -3.2711140775199907e-07 7.1841866652589692e-01  -7.4038839952881397e-01 3.0377401964039112e+00 5.7133486186886218e-01  3.9144048044529056e-01 7.7905374929250115e-01 9.2249283714207042e-01  -1.0270999951773274e+00 7.5594598736088758e-01 -2.0220911219639121e-05  -7.8389305853146907e-01 2.0947038343339286e+00 6.8932073910032376e-01  -6.5296015707989730e-01 8.9226654416024465e-01 7.8483171326049650e-01  7.4046699322919929e-01 3.0377948659695320e+00 5.7169851984326558e-01  7.4167261376579430e-01 1.4676799685875779e+00 7.1742401071154827e-01  5.4828022640449348e-05 2.2494774529484438e+00 7.3139796253284806e-01  -1.0902461659641063e+00 2.2702474126055407e+00 -2.1329381414859811e-05  1.0271095564534642e+00 7.5594690581491519e-01 -3.0803955631535584e-05  1.0901682320387718e+00 2.2702628155103031e+00 -5.1827619055543505e-05  -8.5347843281928293e-01 1.4692247245140646e+00 6.0133781793160523e-01  8.6286491441002233e-01 8.9671665224438946e-01 5.6509348169095597e-01  -3.8955666866579108e-01 4.0896697225137724e-01 9.3200886906143887e-01  9.9359442904095285e-01 1.8947825099882456e+00 3.9024774909025789e-01  3.7503924427749252e-01 1.8886860811127775e+00 8.7574889637534492e-01  -4.7742768805519226e-01 2.5499833572705368e+00 6.9047708459295554e-01  3.7167768404039342e-01 2.9625234971733718e+00 4.4055585438366324e-01  9.3865784451717471e-01 -3.0653753460470332e-07 3.8880572431553445e-01  1.0326654992368436e+00 2.6314592533285910e+00 4.1082009290170646e-01  -1.0698993518675006e+00 3.0341091288550652e+00 3.8810745530640073e-01  -9.3865614181128976e-01 -3.8413096824873022e-07 3.8881406513543104e-01  -1.4083422448916519e-01 8.9448699473688131e-01 9.7135882323602563e-01  -1.0007486629100646e+00 2.5176283375074626e+00 4.5653069835939181e-01  -8.5177075748774556e-01 4.7218654241426866e-01 5.6579504599814501e-01  -3.4736685780399090e-01 1.9317342448381574e+00 8.7609580932171682e-01  -1.0694285055031370e+00 1.8913394282980120e+00 -2.4408127657801845e-05  -9.5091712499352743e-01 1.0247757982767747e+00 4.1045297944665360e-01  7.0934027532843202e-01 4.7596753991744606e-01 7.3348261246534341e-01  3.8881362749437021e-01 5.3512007397004854e-07 9.3866465975858537e-01  -4.8040080209739372e-01 1.3313397364248625e+00 8.7185890800435351e-01  6.4533300375840014e-02 4.5885254769633149e-01 9.9808304168423878e-01  1.9961670393936262e-01 1.1713409061961262e+00 9.4845050859321112e-01  3.7900714528133606e-01 2.5364270245872800e+00 6.6321386121743686e-01  1.0215312705527535e+00 3.7789806778004181e-01 -1.9604665124975513e-05  9.7240060887376489e-01 1.2874647546244231e+00 3.8004132881131047e-01  9.4734792078637409e-01 5.2740096768210898e-01 3.8812661047620628e-01  7.4217741519231695e-01 1.8652192612532572e+00 7.1959473537843799e-01  6.1468694972593219e-01 1.0970723516313670e+00 8.1036071983198521e-01  -1.0153506062107873e+00 2.1326628509923262e+00 3.6771596100113174e-01  -3.8880249727731608e-01 -5.2242879256657645e-08 9.3865843829626039e-01  -3.7135834104573062e-01 2.9625605158461297e+00 4.4048434742790649e-01  1.0698852207360288e+00 3.0340867671432545e+00 3.8818050169593987e-01  7.4894602991535741e-01 2.6493840472405399e+00 6.6402412355829687e-01  -1.0061833497805550e+00 1.7041806886206283e+00 3.3383410912529293e-01  -1.0949982506913160e-01 2.5746360443518399e+00 5.3227426371364706e-01  -1.0371190750386445e+00 1.1341982096243397e+00 -2.6133890642844881e-05  -1.0215327960219316e+00 3.7789780373434523e-01 -2.4826503514352736e-05  1.0371276200271280e+00 1.1341998473565544e+00 -1.0542431894873257e-05  1.0693868395946562e+00 1.8913473537751295e+00 -5.0844064553795458e-05  1.1162916997148675e+00 2.6492610848048095e+00 -2.3042012602782564e-05  -1.1164547180315376e+00 2.6492406283572518e+00 -2.1290368235451400e-05  -6.6096950463648607e-01 1.7451965460660672e+00 7.7490213837486721e-01  1.0230182497434395e+00 2.2632908310071609e+00 3.6918817408370902e-01  3.9629703898115592e-01 1.5026115820808787e+00 8.9165498975581925e-01  1.5714298823916034e-02 1.9350675533290349e+00 8.9275646549049048e-01  4.1127898714184125e-01 4.2432564459402661e-01 9.2318623261081378e-01  3.4008441314487486e-01 2.2228405644624623e+00 8.0178390314662784e-01  -3.3681579574397291e-01 2.2569360408812651e+00 7.8610673560756417e-01  -9.7085973523093216e-01 6.9531134754602042e-01 3.3455464077705410e-01  -1.0001846068978273e+00 1.3512762181232978e+00 3.0663953435433300e-01  -1.2413257271178882e-01 1.2186057723313357e+00 9.5318767094900558e-01  9.9441131137035921e-01 9.8497072192862933e-01 2.8308366974909882e-01  -7.3236122747024002e-01 1.1971165675766615e+00 7.2297867406007688e-01  8.6030895999669388e-01 2.6475914655529331e-01 5.4682997843890346e-01  1.9409725517249515e-01 2.7102381060277438e+00 4.8228302966771353e-01  -7.8450370097709776e-01 2.7026221044970380e+00 6.4301372308551430e-01  -3.5194040442283292e-01 1.6178226522904997e+00 8.9647562330562403e-01  9.3509011268747533e-01 1.5907939207183932e+00 4.8440239527691437e-01  -8.0916861761959979e-01 2.3989443782208317e+00 6.6631997392979825e-01  6.6237629427904454e-01 7.9763305261780615e-01 7.7727553740135791e-01  -9.7118828197011298e-01 3.0853627717679605e-01 3.1358046515916699e-01  -6.3910089419579885e-01 5.6891134323331627e-01 7.9360920279209057e-01  -3.9764524527657258e-01 7.2148750828659181e-01 9.2197001625017383e-01  8.2945889249083427e-01 1.1842335016042398e+00 6.2152302041386842e-01  -8.4949900249292210e-01 8.0641341887039608e-01 5.8090220851401275e-01  -7.0027563501799617e-01 2.8944199135343690e-01 7.3919404752141982e-01  -8.8046120165365005e-01 1.8296211340054709e+00 5.8086072770440889e-01  -1.4722493376088841e-01 2.5454783011976140e-01 9.9784701064044812e-01  1.9792121116289521e-01 2.0603879589128457e-01 9.9123612178211506e-01  5.9517533264868028e-01 2.3207383752703403e-01 8.2387093986020354e-01  -4.0932960219532627e-01 1.0345118701789229e+00 9.0796786535117147e-01  9.1008745614694730e-01 2.4473619990983697e+00 5.7762135214094945e-01  9.2205116689656075e-01 2.8354295207888973e+00 5.5582315212709155e-01  5.4846216599787556e-01 3.0087378675576431e+00 5.2426791761335090e-01  1.6767411518029726e-01 1.7079059052629586e+00 9.1662212267872001e-01  5.6946520191207362e-01 2.0764716820017428e+00 8.0892542785053945e-01  1.0415118798147531e+00 1.7027327969290735e+00 1.9897248559507275e-01  9.0840320091570492e-01 2.0961418509088459e+00 5.5901579308235905e-01  -1.1309327049108828e+00 3.0296369367354479e+00 1.9903072053661794e-01  -1.0889859017933139e+00 2.7467605099132171e+00 2.8387774266623034e-01  1.1097021739185604e+00 2.8183384097748845e+00 2.2010421898536972e-01  9.8348961385224987e-01 2.6304138733307592e-01 2.7025373753568560e-01  1.4115265611509403e-01 8.9790233193157531e-01 9.7113560337558458e-01  -5.3357489446721307e-01 2.8050569904201614e+00 6.0172570414868254e-01  1.0850867091976080e+00 2.4672484580341418e+00 2.0029524426278172e-01  -1.5095707673275771e-01 6.2400981682607393e-01 9.8342868477899570e-01  -1.0673544855454813e+00 2.3640829442018618e+00 2.4952352724793633e-01  5.5883990487789004e-01 1.7042585531251966e+00 8.2818441581389746e-01  1.0793836264035896e+00 2.0807816465949562e+00 -2.2969261780188970e-05  5.1390138897953075e-01 2.7606368825403740e+00 6.1367267780273371e-01  -8.4477459543410560e-01 -6.6437976262811978e-08 5.6446222116027334e-01  -5.8244214701459907e-01 2.3308589731276128e+00 7.6737220007775675e-01  1.2337297949937741e-01 2.4564233421659867e+00 6.0775500487748568e-01  -9.3364019877150595e-01 3.0417429760915038e+00 5.3021398881949178e-01  -5.5581274094776933e-01 2.0774725594164387e+00 8.1341294114775431e-01  -1.0110488864841431e+00 9.0075819079018293e-01 2.0227425233029311e-01  -9.0667944098099984e-01 1.2449835564418901e+00 5.1268692006156691e-01  -1.6680929791628640e-01 2.0904735169957016e+00 8.4163279985150519e-01  -9.7978221094598283e-01 2.7564048358413604e+00 5.0462288146258749e-01  -1.6419576361250260e-01 1.7721185049218080e+00 9.1186538209213108e-01  -3.0290697737935229e-01 2.7359217167259673e+00 5.2208111203533969e-01  5.3566654143444192e-01 2.3721560976340488e+00 7.6174746077929723e-01  -6.7815606027241349e-01 1.4282513119042886e+00 7.6624918531541075e-01  8.0869159607416030e-01 6.7141443704870840e-01 6.3069551416205183e-01  -8.5116798860093101e-01 2.3605329018059440e-01 5.6005205152827109e-01  9.9563276935807865e-01 7.3585962058128085e-01 2.5352391295327731e-01  5.4253319245858178e-01 6.1011302578510740e-01 8.5728935533546458e-01  5.6739767035533428e-01 1.3361252960260019e+00 8.3340430306627622e-01  -5.1265850589172490e-01 2.0395709034608825e-01 8.7627451763584363e-01  -2.6332076422114958e-01 2.4460438134784339e+00 6.6233491551789248e-01  -1.0237844997727339e+00 5.6689385662401859e-01 -1.5157718352997201e-05  -2.4605590574328592e-01 1.4139923479016732e+00 9.2695650418962050e-01  2.5507055952954649e-01 5.9307411461063320e-01 9.6693038545848564e-01  1.0112856019943774e+00 1.4939094043004362e+00 2.8822018736073607e-01  1.0437470967177449e+00 1.3234042811923388e+00 -1.4700339259168899e-05  -9.1836031850449373e-01 2.2292949142276779e+00 5.5514746586430197e-01  8.8070858228167115e-01 1.3906040253643446e+00 5.6109061255591175e-01  -9.9647523134453697e-01 -5.7623373621661594e-07 1.9820681155135375e-01  3.9802394934558544e-01 1.0263084082346414e+00 9.1199666142661751e-01  1.6943141528132449e-01 1.4142267013538783e+00 9.3615091209991919e-01  -1.0431230368217697e+00 1.9260799199976335e+00 2.4247185395894472e-01  2.1347346489086430e-01 2.0447923821057787e+00 8.6143029507124269e-01  1.0237910138550166e+00 5.6689389883525509e-01 -2.6801497280731099e-05  1.0516677600156874e+00 2.0680496687927530e+00 2.3798972804499016e-01  -8.3535834164948963e-01 1.0299432677953066e+00 6.0863664153640129e-01  -1.0133040797946895e+00 1.1425483203634021e+00 2.2669430317589204e-01  -1.0188749202054959e+00 1.8896572874829046e-01 -3.3396256165917258e-05  9.3189763655616165e-01 1.0938279311262169e+00 4.5652589815589251e-01  4.0866742633547037e-01 2.1164744931627494e-01 9.2754410374720753e-01  -1.0794348799688787e+00 2.0807720098859290e+00 -3.1346085047043085e-05  8.4860482584715857e-01 4.7336706362958691e-01 5.7052544742180378e-01  1.0035165354842441e+00 4.5693440834198679e-01 1.9603484676251060e-01  9.2174706499089154e-01 7.2561224857939377e-01 4.5494890030716573e-01  3.7147831525111857e-01 1.2924291378073227e+00 9.0836456565662616e-01  8.9101089715420145e-01 1.7945774388690756e+00 5.6520859758325237e-01  -1.7272310497839808e-03 1.0502072932567583e+00 9.6904022429118686e-01  1.0186116169708503e+00 1.1771645938626871e+00 2.0661868899545088e-01  -1.0052280074540016e+00 4.7254909226048220e-01 1.8810034202217132e-01  5.9185977318794637e-02 6.9358576525660309e-01 9.8790435533906928e-01  -9.4808163081013530e-01 4.9645430943880459e-01 3.8494562815056521e-01  -5.9218151076554837e-01 1.0836924311864102e+00 8.2414360873455661e-01  -9.2844727512406722e-01 2.0242179680942365e+00 5.2509999568085564e-01  -1.1316457166558858e+00 2.8388262374773499e+00 -2.8671401077747996e-05  7.5813649567570318e-01 1.0104938466683964e+00 6.9593378546286899e-01  7.3354713608555044e-01 2.8442230025191577e+00 6.2102569416833453e-01  -5.2313150133975994e-01 1.5250241619998761e+00 8.4847049990821766e-01  7.4761546153598568e-01 2.0642092688120126e+00 7.1688581930355999e-01  7.2949333186184873e-01 1.6662777772917157e+00 7.2827126679476306e-01  -1.9389813966104696e-01 2.9143926505462638e+00 3.5741679532409915e-01  -5.3322287428379514e-03 2.7198661547443654e+00 4.3100789132284084e-01  -1.0699919190356995e+00 2.1762538252969601e+00 1.7761627023387527e-01  9.9647598994967823e-01 -6.9338981078917985e-07 1.9820973305548045e-01  9.3382764891822945e-01 3.0417251660894689e+00 5.3054763865851806e-01  1.9820888135198761e-01 1.2784308592224242e-06 9.9648875562527839e-01  -1.9821690704336428e-01 5.8106619589618512e-07 9.9648144059801935e-01  5.6445629363658056e-01 1.4943802615935803e-07 8.4477694172431861e-01  1.9426634232291162e-01 2.9143242133357892e+00 3.5737871245545694e-01  8.4477758297207017e-01 -6.8227065316102151e-08 5.6446168484637516e-01  1.1307410326745206e+00 3.0296515475975490e+00 1.9904316801560779e-01  -5.4821221308075818e-01 3.0086888765944990e+00 5.2395695378608387e-01  -5.6446197508554929e-01 5.1864275512741196e-08 8.4476920473029937e-01  -6.9335348966610533e-02 2.4056371934311667e+00 6.2935738847817113e-01  1.0476537678157933e+00 2.8251518914289453e+00 4.0666791123252954e-01  5.6484725041882899e-01 2.5904782848156453e+00 6.9255964502103295e-01  7.5332258527621510e-01 2.4572967098803380e+00 6.9363760807728325e-01  9.1880202733290384e-01 2.6418617985338084e+00 5.6947049551480788e-01  3.7205097343913562e-01 1.6950713463846148e+00 8.8822213966922747e-01  -8.5300732878645935e-01 2.8753528267950355e+00 5.8808430512610166e-01  -3.3080033965308125e-01 1.8872819884012348e-01 9.5733856156594777e-01  -1.0941702389335268e+00 2.5612940589701161e+00 1.8998094700096804e-01  -9.2095574832974980e-01 1.6414043900422168e+00 5.1199471627275350e-01  -1.0316708443980773e+00 1.5354557718107511e+00 2.1094395322810125e-01  -1.0600593166438306e+00 1.7019678587091471e+00 -3.4744586658943028e-05  -7.9716860897896491e-01 1.6461308275765059e+00 6.6901475153089474e-01  -5.6634131779854291e-01 3.9088699485106232e-01 8.4353407116172618e-01  1.1314119596451457e+00 2.8388557818959672e+00 -2.1471534548131587e-05  -1.0315768831191878e+00 9.4504724092847803e-01 -1.7600370450883193e-05  1.0188674004030955e+00 1.8896546328751496e-01 -2.9385007703671852e-05  1.0600349088880108e+00 1.7019738105599327e+00 -2.0792792580932522e-05  1.0315874444271120e+00 9.4504811156838087e-01 -4.9665207731550704e-05  -1.0437451760667640e+00 1.3234012103955484e+00 -3.2184813740443384e-05  1.1023621823842444e+00 2.4597564717560920e+00 -1.6048597698300995e-05  -1.1024498546178039e+00 2.4597414319707553e+00 -1.8674707719311616e-05  7.3923881612956011e-01 2.8693054312177985e-01 7.0089967458400682e-01  -9.7935736024296272e-01 1.8723455681031076e+00 4.2013297510381470e-01  -7.8118258782226901e-01 6.3454281719293804e-01 6.6250842265298737e-01  -3.2397038654917609e-01 1.2149278547471005e+00 9.2391292059845320e-01  -7.5453881575968307e-01 1.9039067056572174e+00 7.1038187045377021e-01  -4.7586274849509080e-01 1.7760219502741055e+00 8.5694552002788693e-01  -6.5701354946587731e-01 2.4977472454172425e+00 7.1682928046055050e-01  5.2668519798007674e-01 8.9760060608499159e-01 8.6256616719668699e-01  1.8554961650988192e-01 2.3091675248049883e+00 7.1876240007926928e-01  5.5663205474839283e-01 1.8906634646704894e+00 8.2387745022829262e-01  1.0319232838986778e+00 2.4482683271939552e+00 3.8040240980431528e-01  1.0724791337760633e+00 2.2461082182136787e+00 1.8711606156301142e-01  1.0523587987718543e+00 1.8882294770825063e+00 1.8907173909185512e-01  -2.2888435210467209e-01 1.0571669129723567e+00 9.5080643431039902e-01  7.0517312563411050e-01 1.2464071497018576e+00 7.4611487774022722e-01  5.7047590738563847e-01 1.5203339803542499e+00 8.2754567896762821e-01  -2.0484815749392651e-01 4.3861418582285433e-01 9.8240722330189678e-01  -9.7756690367029175e-01 1.5145821801558073e+00 3.8906972881081403e-01  -1.0069979453141555e+00 2.3077099713126068e+00 4.1416679057908451e-01  -1.0124118337025882e+00 6.4967715668222548e-01 1.6220683084185211e-01  4.2287509548700239e-02 2.1021000094745319e+00 8.2877111762369915e-01  5.7070275149363781e-01 4.3535592044391414e-01 8.4076682951161696e-01  2.3845938190257904e-01 4.1371436983433557e-01 9.7653452297615650e-01  1.0910578663756580e+00 2.6414932053144393e+00 2.3908445153513255e-01  8.8861122228713829e-01 2.2702068306097627e+00 5.9431279423739491e-01  -6.1273315761683456e-01 2.6633432607625211e+00 6.7261641931397020e-01  -6.0310567807091575e-01 1.9086312978938276e+00 8.0328010677456152e-01  9.9540461599703778e-01 2.0686826895752222e+00 4.0665358967128706e-01  -4.7209243458639916e-03 1.3568080292712434e+00 9.4810949207402384e-01  3.6378382887146493e-01 2.3801980650603261e+00 7.3471173102891152e-01  3.9047906914936248e-01 2.0622417091983363e+00 8.5049795579469045e-01  1.8647707754845470e-02 1.8061639663648923e-01 1.0104661060424183e+00  -9.1414964369424256e-01 2.6112007141709124e+00 5.7437168712984310e-01  1.8186383243862969e-01 1.8792655282340502e+00 8.9918370235128675e-01  3.5132684487926269e-01 2.6895496484051953e+00 5.7232611775380138e-01  -3.1460152252094897e-01 5.7127171621166795e-01 9.5279903335825666e-01  -4.8429381461642762e-01 5.6715943544405789e-01 8.8851537676982806e-01  6.1739613158655206e-02 2.5869794952698317e+00 5.1572356734875624e-01  -1.8018483204074309e-01 2.3040225270612225e+00 7.2022644718339435e-01  -8.9847324789401706e-01 6.3524527571492717e-01 4.9518571995551153e-01  -9.6449352571734959e-01 8.6200130011334819e-01 3.6437674724450392e-01  -4.1080297138060057e-01 2.4013120086003252e+00 7.3699076757130855e-01  -3.3824801898813861e-01 2.0981166294540197e+00 8.4523862047011311e-01  -1.0099749232042747e+00 2.8348243231643133e-01 1.4517221161688826e-01  7.8655122360233032e-01 1.3586795562435525e-01 6.4488833950291469e-01  -6.4206152383806403e-01 1.3896592687227666e-01 7.8796942403194403e-01  -1.0496684198979251e+00 1.7641449644471201e+00 1.6915670955526274e-01  1.0300461697011742e+00 1.3527697550590165e+00 1.7893774935403209e-01  -4.9383136675415717e-01 8.7355370024762047e-01 8.7895461563148414e-01  -5.8885174301399579e-01 7.3370702486173012e-01 8.2875962827822724e-01  7.7041361059002724e-03 1.7690818327279436e+00 9.1768801769848929e-01  -9.7401975706853350e-01 1.3942151303403180e-01 2.9524358020982733e-01  -6.9481060971645292e-01 2.8398296193443686e+00 6.2245103031298665e-01  1.0204135315842600e+00 8.5065095131365942e-01 1.3650715106764244e-01  -1.8038723469309784e-01 1.9344705831854252e+00 8.9019910066522145e-01  6.7807017018088001e-01 6.3455428179317297e-01 7.6323787483643457e-01  -9.1055968397883147e-01 3.5563448777125178e-01 4.6192753604946296e-01  2.2960596912378012e-01 2.5776316371962911e+00 5.7266002837126229e-01  8.3625980977865622e-01 1.5787166674573501e+00 6.2580240710686563e-01  4.9615665448898699e-01 1.1932115626975524e+00 8.6999539918266100e-01  -3.3089271293693623e-01 2.5936766550501185e+00 6.1152918738896200e-01  8.4353819702736665e-01 1.9616195801209093e+00 6.2988747435521497e-01  9.6835272542699180e-01 1.7402694492096722e+00 4.3122624305298851e-01  -7.4003796542397704e-01 4.5635420754875000e-01 7.0311433203615170e-01  2.1210059487007552e-01 7.5068074533901186e-01 9.6889706324863623e-01  -6.6807802365210578e-01 2.1899191139650536e+00 7.6007093520469415e-01  -6.0562165507362642e-01 1.2446920970862667e+00 8.1426377729230959e-01  -7.2144299016650348e-01 1.0330049583480163e+00 7.3065194705924352e-01  -7.8390139924448321e-01 1.3433713205752433e+00 6.7665359462927133e-01  9.4026326632845836e-01 9.3738943581914314e-01 4.2841340275613127e-01  -9.6919558591025923e-01 1.1798903285836773e+00 3.7838142451364631e-01  8.9732148971624237e-01 1.2516170455807857e-01 4.7929272756242880e-01  9.1550524769977115e-01 3.8412621245826417e-01 4.5305599103679417e-01  -6.5609507555623259e-01 1.5856602195344747e+00 7.7951866872103537e-01  9.5679944635022751e-01 1.4440399046784793e+00 4.3054024662273893e-01  -9.3943488154273158e-01 2.38981646803315