<?xml version="1.0"?>
<VTKFile type="UnstructuredGrid"  version="0.1"  >
<UnstructuredGrid>
<Piece  NumberOfPoints="758" NumberOfCells="1386">
<Points>
<DataArray  type="Float64"  NumberOfComponents="3"  format="ascii">-1.570796326794897 3.048 0  -1.570796326794897 0 0  1.570796326794897 0 0  1.570796326794897 3.048 0  0 0 0  0 3.048 0  -1.570796326794897 1.524 0  1.570796326794897 1.524 0  -0.04609926118424437 1.524 0  0.7853981633974483 0 0  0.7623485328053261 2.262242601661362 0  -0.7853981633974483 0 0  -0.7853981633974483 3.048 0  0.392699081698724 0.7745759241961347 0  -1.570796326794897 0.762 0  -0.8084477939895706 2.0955 0  -0.68277245543452 0.8915343570675713 0  0.7853981633974483 3.048 0  0.778743707341909 1.468410948960538 0  2.780093748954961e-16 2.285302774973185 0  -1.570796326794897 2.286 0  1.570796326794897 0.762 0  1.570796326794897 2.286 0  -0.9375370967763674 1.47348297960658 0  0.9831575747762593 0.9003629142671278 0  -0.3926990816987241 0.4064697549061488 0  1.177419588818055 1.905 0  0.3692901340097942 1.880893989147954 0  -0.4920225169641509 2.564371687128368 0  0.3926990816987241 3.048 0  1.178097245096172 0 0  1.155705348811136 2.643920532523289 0  -1.178097245096172 3.048 0  -1.178097245096172 0 0  -0.1391296372266528 0.8873724190154949 0  -1.10527745318919 2.528282743051346 0  -0.9817477042468103 0.4742759268549471 0  -0.3416666987802651 1.923944646262223 0  -1.570796326794897 1.905 0  -1.156555306160469 1.030861936336814 0  0.7648449098493205 0.4764142032227 0  0.3926990816987241 0 0  -0.4820376416180818 1.326151321396512 0  0.06374421723344185 0.4545169930886408 0  0.1972735722393064 1.163324878565267 0  0.3900417218314142 2.566922767651637 0  1.570796326794897 0.381 0  1.188877612935585 1.295195418509834 0  1.179914028402171 0.5308585702661928 0  0.7660075594126428 1.865233039449035 0  0.6330293131838399 1.095171663968746 0  -1.201232463242587 2.144287146570887 0  -0.3926990816987241 0 0  -0.3926990816987241 3.048 0  1.178097245096172 3.048 0  0.7684409382397209 2.649499271873753 0  -1.236954997304436 1.7145 0  -0.1088573452899617 2.666651387486592 0  -1.570796326794897 1.143 0  -1.570796326794897 0.381 0  1.570796326794897 1.143 0  1.570796326794897 1.905 0  1.570796326794897 2.667 0  -1.570796326794897 2.667 0  -0.6730839067294777 1.743003792473746 0  1.199831389396789 2.275437921225198 0  0.3936837537618041 1.495643752599615 0  0.01539369169800942 1.928544709491661 0  0.4156551272669651 0.4219033286010089 0  0.3401546043708642 2.225103550856524 0  -0.3379897306391274 2.262671266279809 0  -1.23624174049596 0.7000907110925838 0  -1.265224057170889 1.360131453617764 0  -0.1224339018241312 1.210043725539656 0  1.289286200625578 0.9918698881707442 0  -0.7751142346211329 1.197848666814478 0  1.003546186550495 0.2660297686099683 0  0.1963495408493621 2.808538634159524 0  -0.8079023568959116 2.703551618159924 0  -0.3480226984353056 1.610059855391589 0  1.075147893506229 1.598068412087719 0  -0.8290627893979112 2.399544545867518 0  0.6965048925255637 0.7972100472372819 0  -1.257765094876752 0.3107645483825858 0  -0.6724835324263325 0.5684215760013651 0  -0.3995059642389676 0.7173610149075536 0  0.9136951972244611 1.187564504803626 0  -0.964259350608907 0.8095514380783081 0  -0.7565990314517038 0.2897049735129544 0  -0.9603859887840651 1.834914433810327 0  -0.1457055965762301 0.2521630699436873 0  0.1963495408493621 0.2041911848053476 0  0.6241974196550791 0.231695999252114 0  -0.4098815011312292 1.029160072548571 0  0.9592800715482012 2.452820690856482 0  0.9648684169153161 2.840751931000357 0  0.5890486225480862 3.048 0  0.164631037784102 1.698913854044779 0  0.5664480837073581 2.070920238540226 0  1.374107957806476 1.7145 0  0.9861079629544779 2.102471438422718 0  -1.374446785945534 3.048 0  -1.288827800789186 2.762781313597598 0  1.353232957571468 2.835634774483438 0  1.302158670506274 0.2650078124691045 0  0.1394669809465775 0.8907702620243092 0  -0.5631487221059602 2.830992231257464 0  1.372837635547072 2.483038902756259 0  -0.1493395228831287 0.618617259260858 0  -1.32327048447753 2.378769394323546 0  0.56080204725298 1.699622905297025 0  1.570796326794897 2.0955 0  0.5403456747786348 2.786446773498672 0  -0.9817477042468103 0 0  -0.5847039960246873 2.326882432521036 0  0.1225428891326576 2.526494255738436 0  -0.9817477042468103 3.048 0  -0.5522901559753841 2.071668786267058 0  -1.370864794258017 0.9075071715671403 0  -1.043891045637083 1.250611220450313 0  -0.1652643923634778 2.09141301924679 0  -1.044446740946883 2.764982067459552 0  -0.1610370079820225 1.763280243096074 0  -0.3136912237752232 2.810498886211121 0  0.5400974078002052 2.370472734822523 0  -0.7009161718414544 1.427243880175582 0  0.902907438200502 0.6735032943420574 0  -0.9879196222361604 0.2371379634274736 0  1.319268546233604 0.7412771512308228 0  0.5578373583610097 0.608241627784878 0  0.5756483102040615 1.332636919938113 0  -0.5281701577409 0.2032348774530744 0  -0.266729509930448 2.489223923247521 0  -1.570796326794897 0.5715 0  -0.2430656531629531 1.405631921096758 0  0.253622337931223 0.5884397663452474 0  1.284044721043478 1.50372037617638 0  1.570796326794897 1.3335 0  -0.9904333867980613 2.235882060371517 0  0.9871146764618406 1.395690276854986 0  -1.374446785945534 0 0  0.3981951765262902 1.020833864419675 0  0.1670583512016766 1.405384478716078 0  -1.330327693484763 1.938638984813805 0  0.2106653067452682 2.040805097078886 0  1.570796326794897 0.5715 0  1.334822181490566 2.081373939821734 0  -0.9303227889097604 1.033236710715967 0  -1.34639228476592 1.150776798768373 0  -1.570796326794897 0.1905 0  1.106697207481837 1.099709897393925 0  0.4137866939027022 0.2104288000383385 0  -1.570796326794897 2.0955 0  0.9761377489246634 0.4754251272674608 0  1.377108465632662 0.4605024587280874 0  1.108114944719677 0.7297638044096917 0  0.3695908229138113 1.285681859811955 0  0.9799112840676307 1.800306505551499 0  -0.001696842075803034 1.042028929293442 0  1.366537356420357 1.185723700290463 0  -1.385029840108318 0.47625 0  0.05842649915411911 0.6874537157920781 0  -1.183268988745763 0.4997334438341218 0  -0.6073502281622543 1.081347079085406 0  -1.026941765261019 2.031536576622642 0  -1.570796326794897 2.8575 0  0.8159726599830506 1.011928543199529 0  0.7652782693277244 2.849245002237192 0  -0.5252326280373281 1.520125074885265 0  0.7648326174724897 2.063743853392348 0  0.757099741434616 1.666331708950521 0  -0.1963495408493621 3.048 0  -0.005410422648647092 2.843333256403111 0  -1.395368347654653 2.19075 0  1.374446785945534 0 0  0.9817477042468103 3.048 0  0.1963495408493621 0 0  -0.1963495408493621 0 0  0.5890486225480862 0 0  0.1963495408493621 3.048 0  0.9817477042468103 0 0  1.374446785945534 3.048 0  -0.5890486225480862 3.048 0  -0.5890486225480862 0 0  -0.06865319188571758 2.471928549109083 0  1.159049337209348 2.838090892449816 0  0.5817075150535711 2.596909954318943 0  0.7656515661107315 2.455866896253367 0  0.9620790410056582 2.647119292933887 0  0.3676829480103987 1.68739481709134 0  -0.8886101495223063 2.878912500124773 0  -0.3317793704126089 0.1873756770788371 0  -1.383208664444332 2.577695923010364 0  -1.043597917648523 1.648216005744782 0  -1.362178343413552 1.546177620526679 0  -1.570796326794897 1.7145 0  -0.8462722504471433 1.648434957877788 0  -0.588076822054871 0.3899352838051667 0  1.570796326794897 2.8575 0  -1.570796326794897 0.9525 0  1.570796326794897 0.1905 0  1.570796326794897 1.7145 0  1.570796326794897 0.9525 0  -1.570796326794897 1.3335 0  1.570796326794897 2.4765 0  -1.570796326794897 2.4765 0  0.8103777117362174 0.287468585434799 0  -1.145334531235929 1.881885620422454 0  -0.8620560674467429 0.6361265362229395 0  -0.321688879263093 1.207848147265888 0  -0.7798551871678058 1.904240998338365 0  -0.4724954359209014 1.769587110195458 0  -0.667402576232105 2.495985359319255 0  0.5365063314111709 0.8945566719544227 0  0.1855702280441107 2.342745654422604 0  0.55510120733165 1.88540118775351 0  1.188295809121239 2.460939894898248 0  1.38587897409014 2.260870763688798 0  1.383978812419919 1.901097375082534 0  -0.2265735189171196 1.049795314962436 0  0.7387890113368257 1.246392780742437 0  0.5763234466275948 1.516457524623135 0  -0.203279258075353 0.4348372558382012 0  -1.179202350299698 1.523245956950107 0  -1.151844216720993 2.318990544544152 0  -1.410806081599612 0.6547540757597369 0  0.04190096621848406 2.108399609871347 0  0.5925649981629265 0.4343292987553075 0  0.2371113691258682 0.4102816185532077 0  1.334103818253725 2.657728219912091 0  0.9405077369493808 2.275181409651143 0  -0.633962040105568 2.669303984283053 0  -0.6045614816381242 1.904349918307267 0  1.159697673803787 2.079238591118184 0  -0.004643801590645341 1.347662554528907 0  0.3691400131247499 2.395423267764724 0  0.3855005143298051 2.055603978165229 0  0.01839821075864462 0.1788084577298442 0  -0.9568120219060965 2.61629404172056 0  0.1783135820912846 1.871116340262054 0  0.3649950158263953 2.745288921627024 0  -0.3142054567155264 0.5671999812317062 0  -0.4933549623779417 0.564740705097546 0  0.06092775470575962 2.685867440722903 0  -0.1801827362748675 2.337517890002858 0  -1.063355415037434 0.6386189748554 0  -1.205242865599393 0.8676070232612285 0  -0.4176020549597784 2.412196127179313 0  -0.3347051678178828 2.093252344225509 0  -1.427772711006951 0.2857500000000001 0  0.8835729338221293 0.1362887052191026 0  -0.6831011505337878 0.1389086130988801 0  -1.403875662049666 1.77648180985222 0  1.394165436236593 1.362588987767805 0  -0.5007942298153729 0.8700626692351643 0  -0.6093220848169366 0.7321530406295067 0  0.007534593095922887 1.760126887057542 0  -1.276272015520854 0.140425968067263 0  -0.7270478511000733 2.847016806985676 0  1.436331331726002 0.85725 0  -0.1770320080670663 1.927167796173981 0  0.7200726153501196 0.6345534912379586 0  -1.099983122078282 0.3577316115390257 0  0.2324759135153202 2.648405702327079 0  0.9054371869972004 1.582409569434113 0  0.5000672234640285 1.188708149930449 0  -0.340793734207542
[...]
<PointData  Vectors="phi"> 
<DataArray  type="Float64"  Name="phi"  NumberOfComponents="3" format="ascii">-1.2207995104075080e+00 3.0314118597211657e+00 4.9998371016390843e-04  -1.0160107463939327e+00 1.0909564105237550e-07 -9.5039414426981423e-06  1.0160108475100995e+00 8.5501360403005175e-08 -1.1327423924490550e-05  1.2210809282257695e+00 3.0313522612139105e+00 4.1206114428287127e-04  -6.3536953975073405e-06 9.7427388012217883e-07 1.0160211502187728e+00  -9.8596189983376202e-04 2.4971636244181998e+00 -5.5902127501533605e-01  -1.0771041247853164e+00 1.5101201570329255e+00 -1.6899213242204156e-05  1.0776512886948411e+00 1.5100202209702644e+00 -2.6178624470399713e-05  -4.7023091227968876e-02 1.3176476317902779e+00 4.1126994202034362e-01  7.1842688992051174e-01 -2.0513552101927368e-07 7.1841646894773448e-01  6.0452769571422416e-01 2.1680728205572311e+00 3.0394187102840359e-01  -7.1842396503819494e-01 1.4827099120287822e-07 7.1841832924603000e-01  -5.9203158939175926e-01 2.8212554576177529e+00 -1.3192584897223014e-01  3.9506983211764463e-01 7.7751477050216045e-01 9.1130563375379414e-01  -1.0229070728606449e+00 7.5605633616938239e-01 -2.1848237177148348e-05  -6.6118491133570312e-01 2.0418800990436559e+00 4.0957014994665836e-01  -6.6529525334947415e-01 8.9464172928504493e-01 7.9004874840203199e-01  5.9146858810458047e-01 2.8205396985704874e+00 -1.3387260964483988e-01  7.1588335015623661e-01 1.4661488414072326e+00 6.5299079859649645e-01  -7.0110483752609224e-04 1.9156787148752994e+00 -6.2657264961470546e-02  -1.1826177270913103e+00 2.2655050008000943e+00 4.1100234262070709e-05  1.0229530492308352e+00 7.5602980530196118e-01 -3.0611393460402079e-05  1.1833780063192576e+00 2.2653383718998810e+00 -7.2359256076859942e-05  -8.6074935173611122e-01 1.4741307526812470e+00 5.8594380085769693e-01  8.7437227190355638e-01 8.9799505911519339e-01 5.7023541003959821e-01  -3.9319050640112846e-01 4.0874272777885157e-01 9.3337866402151792e-01  1.0196219412930376e+00 1.8969584116061522e+00 3.7500579050399818e-01  3.3143948202341100e-01 1.6898701452083094e+00 3.0613102351179050e-01  -4.0714860665527058e-01 2.2939373377287380e+00 -2.8522191369308829e-02  3.2994663583146661e-01 2.6373016305128170e+00 -3.7673423129462263e-01  9.3865773401263752e-01 -4.2033310380392695e-07 3.8880536527970450e-01  9.2190772415880706e-01 2.6118634070183817e+00 2.3896463618889979e-01  -8.9191964960662484e-01 2.9813583735895937e+00 8.0434181342490002e-02  -9.3865737220633860e-01 -1.4996209406906548e-07 3.8881448676894725e-01  -1.3851023019178668e-01 8.5261636291102982e-01 8.4720300862695497e-01  -8.8890404941640355e-01 2.4972842912533304e+00 2.7983592384523059e-01  -8.5490965392839724e-01 4.7252199631937331e-01 5.6774653590446411e-01  -3.1112812805899853e-01 1.7127317109480340e+00 2.6586209505668612e-01  -1.1333608160814705e+00 1.8862501006909018e+00 -2.6166119697011295e-05  -9.6067222177216505e-01 1.0253807065336551e+00 4.1337359429152071e-01  7.1462428879519924e-01 4.7643469593322524e-01 7.3694889197467339e-01  3.8881400324573190e-01 1.1945740793276070e-06 9.3866813714717767e-01  -4.4259981575278462e-01 1.2845274678525556e+00 6.8394709595665626e-01  6.5120434554120865e-02 4.5698508635191137e-01 9.9240071631020599e-01  1.9334973677247563e-01 1.0679914672906075e+00 6.7536582412697510e-01  3.3802387741015116e-01 2.2484296620387596e+00 -9.3348398015508038e-02  1.0196146068864798e+00 3.7807979525669072e-01 -1.9545479332482313e-05  9.9360473594796339e-01 1.2878321759651215e+00 3.8305809824152953e-01  9.4816462508805155e-01 5.2765151676259081e-01 3.8899266325170562e-01  6.4965381818383350e-01 1.8283354874175368e+00 5.0397636050968564e-01  6.1255786516691768e-01 1.0980105512788010e+00 7.8514640379283063e-01  -1.0262802475753134e+00 2.1342143411589545e+00 3.3582056943821653e-01  -3.8880208241360514e-01 -3.2099834409096430e-07 9.3865834859439623e-01  -3.3134074707660144e-01 2.6378358749183040e+00 -3.7550518469190458e-01  8.9153210743715172e-01 2.9807334364326543e+00 7.8278538761491281e-02  5.8751331282963193e-01 2.4905833568767717e+00 9.0006090777164649e-02  -1.0458675549386298e+00 1.7041841978411969e+00 3.3243826798642662e-01  -1.0926385399909522e-01 2.2272574386441475e+00 -2.8361483999759995e-01  -1.0360170777893190e+00 1.1338348127674975e+00 -2.3321703396830974e-05  -1.0196195919245741e+00 3.7809226467887436e-01 -2.4602099617550956e-05  1.0362009233050680e+00 1.1337873963391332e+00 -1.2984030930442660e-05  1.1340860080525410e+00 1.8861001306434182e+00 -4.9177829469912047e-05  1.2132506500708169e+00 2.6480529547927967e+00 -7.6269140170245702e-05  -1.2122885433865807e+00 2.6482037422292133e+00 3.5533489388770861e-05  -5.7775648445645822e-01 1.6963445338783412e+00 5.3646034534278098e-01  1.0140067385556937e+00 2.2635701938088908e+00 3.1860841729275363e-01  3.5798042517023498e-01 1.3926805418985471e+00 5.4973140356870454e-01  1.5023179265782687e-02 1.6336127705309653e+00 1.5672757203039528e-01  4.1527010605104125e-01 4.2419206387790021e-01 9.2496991148862262e-01  3.0700201297089852e-01 1.9518873834116879e+00 8.2256207821995830e-02  -3.0620526705269602e-01 1.9812694486147386e+00 5.9216728613676294e-02  -9.7128955225116331e-01 6.9560191817966188e-01 3.3536733494671161e-01  -1.0217537474021077e+00 1.3508673578819237e+00 3.0854695281380201e-01  -1.2269856938816515e-01 1.0863395248194430e+00 6.2510623293023659e-01  9.9714847133281359e-01 9.8510273502730872e-01 2.8400433834366950e-01  -7.3828549420888356e-01 1.2011385589769183e+00 7.1207262144899164e-01  8.6169264510503640e-01 2.6485905358947304e-01 5.4769250422502092e-01  1.8500374540755532e-01 2.3646996436725876e+00 -3.3901579301508439e-01  -6.1435116632954512e-01 2.5524517642701423e+00 8.3240256441010407e-02  -3.1945095963619929e-01 1.4661824685897427e+00 4.5937196180420331e-01  9.5740121342426110e-01 1.5943722733955819e+00 4.7741238098875544e-01  -6.4825811734601557e-01 2.3088493873227933e+00 2.6342072659321181e-01  6.7434218761247244e-01 7.9939760538638283e-01 7.8429938064937854e-01  -9.7092038395203362e-01 3.0867865752085338e-01 3.1381109515293371e-01  -6.4643076222972884e-01 5.6960369934727917e-01 7.9868945592310159e-01  -4.0346892768417636e-01 7.2090025627630505e-01 9.1967614931871966e-01  8.4745693878207362e-01 1.1877846392108269e+00 6.2463637183139931e-01  -8.5863764632690354e-01 8.0749124300199016e-01 5.8553050557750774e-01  -7.0314474579586039e-01 2.8956570027717238e-01 7.4104957165810870e-01  -8.4631164645223711e-01 1.8292860926091998e+00 5.0941308497487492e-01  -1.4780788441555731e-01 2.5403572302147986e-01 9.9451952241615293e-01  1.9856237386577769e-01 2.0573981191598362e-01 9.8912072968470877e-01  5.9758409089210962e-01 2.3211709190161267e-01 8.2537926176385945e-01  -3.9607110729221984e-01 1.0153506454641821e+00 8.1902830597126852e-01  7.5707557290127303e-01 2.3964673131509686e+00 2.8478513655208648e-01  7.2762529721288416e-01 2.7288578147853233e+00 8.7642992684806950e-02  4.6203322587729084e-01 2.7284352956943070e+00 -2.5606202040982295e-01  1.6161310905636511e-01 1.4742416393971387e+00 3.2613356223212120e-01  4.6807273730275101e-01 1.9290371769507768e+00 3.0610365410706514e-01  1.0872849648277736e+00 1.6998347467384036e+00 1.9919007033576516e-01  8.3302254289057609e-01 2.0852525726856350e+00 4.2731071745060972e-01  -1.0837655304414062e+00 3.0247207797642455e+00 1.2105856166940648e-01  -1.0382803836521697e+00 2.7407493547947666e+00 1.9471234241739283e-01  1.0907732775722656e+00 2.8157549709815606e+00 1.6141294265703998e-01  9.8302925328183222e-01 2.6316395296347661e-01 2.7037503671101792e-01  1.3849407433378647e-01 8.5515657452020066e-01 8.4480295169854569e-01  -4.4689239336018094e-01 2.5434104735399425e+00 -1.4062104991804958e-01  1.1344157546329778e+00 2.4668235314302045e+00 1.8489234284880640e-01  -1.5259190769472605e-01 6.2030845744966501e-01 9.7161725028219459e-01  -1.1041284895244707e+00 2.3639717741759996e+00 2.2915009406558814e-01  4.8366439062522676e-01 1.6219774054349987e+00 5.1301429965111356e-01  1.1606544382648762e+00 2.0752677858318997e+00 -2.1246132043619765e-05  4.3200658943308234e-01 2.4961818299736711e+00 -1.2999055001744445e-01  -8.4477551852055344e-01 5.9196572289010586e-08 5.6446290026016621e-01  -4.7270577709877037e-01 2.1454181381353115e+00 1.6906103983405874e-01  1.2096253825269138e-01 2.1192934066095570e+00 -1.9413283378355295e-01  -7.3055590995855324e-01 2.9084621898167615e+00 -1.5727853789527364e-02  -4.5858383637565048e-01 1.9236846092811750e+00 2.9857327783570647e-01  -1.0094099552740596e+00 9.0085330639758643e-01 2.0251004741910600e-01  -9.2848091145569156e-01 1.2471660025764990e+00 5.1712646174383292e-01  -1.6300906031494461e-01 1.7844012414022308e+00 8.4845261738551669e-02  -8.0082824079720039e-01 2.6931578996875585e+00 1.6461968591543749e-01  -1.5916319856829553e-01 1.5239520734829362e+00 2.8530862445355626e-01  -2.7837144409372422e-01 2.4128107003789436e+00 -2.7947435219404909e-01  4.4156623846263493e-01 2.1595291015840972e+00 1.1471153137008638e-01  -6.4370624877388927e-01 1.4198534609361708e+00 6.7644009469653477e-01  8.1589756549983106e-01 6.7227573454523659e-01 6.3486839327599043e-01  -8.5240873509518855e-01 2.3613642669165980e-01 5.6081395063482664e-01  9.9450056402983777e-01 7.3604872748531691e-01 2.5391638426478447e-01  5.5059322953634737e-01 6.1073888335938675e-01 8.6291038454741775e-01  5.3014403276964972e-01 1.3132217983369114e+00 7.0460184792465463e-01  -5.1464578106529502e-01 2.0393635812678601e-01 8.7737896047821839e-01  -2.4931730100948565e-01 2.1341328121525787e+00 -1.1417286729610902e-01  -1.0207407857035187e+00 5.6708241985143781e-01 -1.5322323970581868e-05  -2.3394160479805642e-01 1.2678678890073092e+00 5.3787360805082907e-01  2.5851090153836970e-01 5.9131568904639664e-01 9.6358599700629965e-01  1.0422928801744300e+00 1.4928818969159743e+00 2.8961435650910222e-01  1.0532368977220194e+00 1.3221723846340943e+00 -1.5423344256777468e-05  -8.1763460893924611e-01 2.2095389831045216e+00 3.8242137443891328e-01  8.9964420516519061e-01 1.3947353894950254e+00 5.5855542374315159e-01  -9.9647495912216399e-01 -6.2181602368420623e-07 1.9820659415163130e-01  3.8483878564485180e-01 1.0062271516057342e+00 8.2078059358579625e-01  1.6436090315078505e-01 1.2458771149477408e+00 5.1109520554340626e-01  -1.0976586064907370e+00 1.9241597623927871e+00 2.3990229890179596e-01  2.0281786449457631e-01 1.7571459145959005e+00 1.3203852636511812e-01  1.0207564297440126e+00 5.6706184885841449e-01 -2.7449686789934264e-05  1.1087787374678606e+00 2.0664369624106338e+00 2.3249674918730914e-01  -8.5186911637956864e-01 1.0321577616780078e+00 6.1498665670167030e-01  -1.0185486255182667e+00 1.1423553837526967e+00 2.2734059994359562e-01  -1.0181170455660291e+00 1.8908852799556014e-01 -3.3339670046580883e-05  9.4684258032913393e-01 1.0947934607172076e+00 4.6068329875890374e-01  4.1037761325115496e-01 2.1156264636863195e-01 9.2798793152832448e-01  -1.1597069372898841e+00 2.0754221128652905e+00 -2.9858041825062871e-05  8.5188561643624017e-01 4.7370562113472292e-01 5.7254848059363128e-01  1.0019823365751486e+00 4.5711654435321430e-01 1.9614308602105601e-01  9.2562309958786826e-01 7.2611876876357506e-01 4.5703056150591237e-01  3.4468597184373484e-01 1.2161745397366148e+00 6.6337888832273229e-01  8.6869085050134132e-01 1.7964347023420706e+00 5.0936313963440105e-01  -1.9546396631409486e-03 9.5021816256013758e-01 7.2462341905809124e-01  1.0247379362948739e+00 1.1767913101151692e+00 2.0715651704104382e-01  -1.0035578603327466e+00 4.7274831983104637e-01 1.8819838475705153e-01  5.9247033061576707e-02 6.8472687770289709e-01 9.5470412766824642e-01  -9.4871048277844205e-01 4.9669615267042178e-01 3.8571708643372110e-01  -5.8870759302417286e-01 1.0836801441697412e+00 7.9550147125767701e-01  -8.8406461340662190e-01 2.0218484481008949e+00 4.4030811217568244e-01  -1.2186178842184272e+00 2.8401053874123776e+00 1.4928400284576693e-04  7.7352094687075856e-01 1.0135137344882561e+00 7.0153191916999502e-01  5.8006492119030995e-01 2.6514373456821989e+00 -2.8360609139268321e-02  -4.6676240598776259e-01 1.4602766774062366e+00 5.9612050892238333e-01  6.2506704472253538e-01 2.0006460625764082e+00 4.0861747502096951e-01  6.6757491174583106e-01 1.6481736492704964e+00 5.8704040568898208e-01  -1.8414044393260143e-01 2.5535787376584538e+00 -4.8574049574971284e-01  -6.4243853372891561e-03 2.3529113096619523e+00 -4.0955954788163063e-01  -1.1392763800384234e+00 2.1736262929390588e+00 1.7409051537994685e-01  9.9647611304142214e-01 -5.8457755692480538e-07 1.9820945816867774e-01  7.3018703465240919e-01 2.9077555845484930e+00 -1.7964957633850955e-02  1.9820830320392294e-01 1.2292290290189267e-06 9.9649233088340272e-01  -1.9821641556248357e-01 5.3858266491947111e-08 9.9648286064438851e-01  5.6445617015507776e-01 2.3724736029894005e-07 8.4477701975973718e-01  1.8229472003886332e-01 2.5532509621017065e+00 -4.8655710962051563e-01  8.4477857570983694e-01 -2.2327735488533962e-07 5.6446228807707999e-01  1.0832136443684739e+00 3.0246824969273325e+00 1.1976189524038877e-01  -4.6301502590383847e-01 2.7290364319516303e+00 -2.5450234856609255e-01  -5.6446395135862482e-01 -3.9323668840225213e-07 8.4477252273165881e-01  -7.0002902865438019e-02 2.0672205206386027e+00 -1.7184723654945483e-01  8.9853325391324435e-01 2.7886189869530762e+00 1.6371788426925835e-01  4.6335474898210471e-01 2.3622391760614958e+00 7.2584646573512256e-03  5.9414930199981397e-01 2.3304438058495038e+00 1.9889255637339706e-01  7.3911552861740004e-01 2.5649659921027745e+00 1.9001225056142104e-01  3.3288117792598954e-01 1.5353277337600317e+00 4.2204269368866870e-01  -6.6770252860445456e-01 2.7301901877783998e+00 2.7797807213100188e-02  -3.3199235397010646e-01 1.8858373668851289e-01 9.5704785302173800e-01  -1.1382025700932321e+00 2.5612801480401606e+00 1.7233974487018183e-01  -9.3452140302639486e-01 1.6456814959764374e+00 4.9700077996643460e-01  -1.0634712197570950e+00 1.5335012446528244e+00 2.1171315775955526e-01  -1.1050001149518411e+00 1.6979435388670590e+00 -2.7728923995026250e-05  -7.5963872659953469e-01 1.6431371975280689e+00 5.8867489714938959e-01  -5.7076008594531802e-01 3.9107492839539448e-01 8.4648297929300464e-01  1.2196227819047731e+00 2.8399663398573440e+00 -3.0668697829607422e-07  -1.0270859292412176e+00 9.4500633505643572e-01 -1.7247190439509180e-05  1.0181088191083953e+00 1.8908273641913612e-01 -2.9261454744293734e-05  1.1057133738898723e+00 1.6978099261112585e+00 -1.6456781297937981e-05  1.0271695543092851e+00 9.4497143617138679e-01 -4.8004077720052321e-05  -1.0528745947048492e+00 1.3222407374615892e+00 -2.9857942471540093e-05  1.2010983123843757e+00 2.4563920733753202e+00 -3.4293987881019363e-05  -1.2001879118728125e+00 2.4565440152520708e+00 5.3502304144843246e-05  7.4189679228828886e-01 2.8705937577137591e-01 7.0258488682089471e-01  -9.9849542882421949e-01 1.8752221493533596e+00 4.0154751167813751e-01  -7.8815332744153332e-01 6.3536089324816036e-01 6.6675012187224914e-01  -3.0556999659909884e-01 1.1390100530889711e+00 6.9168498607727735e-01  -6.5824950263265214e-01 1.8665082949492844e+00 4.9081464239658656e-01  -4.1121448146257955e-01 1.6445469832888147e+00 4.2956657017848121e-01  -5.2298743455175778e-01 2.3207976603484637e+00 1.2079891056450374e-01  5.3192874900465714e-01 8.9845769980690160e-01 8.5412869947368675e-01  1.7991714903469883e-01 1.9894592811945429e+00 -6.1684759466212429e-02  4.6798178602974011e-01 1.7728905980377814e+00 4.0637749673449675e-01  9.8116549861675761e-01 2.4432453376520158e+00 2.8781145625057730e-01  1.1395615625993920e+00 2.2439976991259671e+00 1.8142894964375925e-01  1.1112105813703306e+00 1.8848750705080584e+00 1.8831470507143702e-01  -2.2180999538683618e-01 9.8986888867073575e-01 7.5845228922959496e-01  7.0121684207477120e-01 1.2491160050104420e+00 7.1887772769480995e-01  5.1213891686469459e-01 1.4730230995929898e+00 6.1618448964224548e-01  -2.0682697436650990e-01 4.3747556541034832e-01 9.7966987491589719e-01  -1.0090563740196756e+00 1.5154221315478313e+00 3.9029710692326069e-01  -9.6546921957241183e-01 2.3047735193588408e+00 3.3248960488286017e-01  -1.0098202454809329e+00 6.4985779825071432e-01 1.6229335957129148e-01  4.1707579641757704e-02 1.7770537475585781e+00 4.7614027436217392e-02  5.7578394589778992e-01 4.3563979103875011e-01 8.4418578232147412e-01  2.4054690369435811e-01 4.1286056292010975e-01 9.7438429008962391e-01  1.0936706395867977e+00 2.6405275074621084e+00 1.9554423240672933e-01  7.6225691224155678e-01 2.2347980648662391e+00 3.6005940970425637e-01  -4.9625306760954652e-01 2.4459566946040385e+00 -1.1676810949638277e-03  -5.0555144980948574e-01 1.8086815394125448e+00 4.2248795430483593e-01  9.9794695680385981e-01 2.0704879186812999e+00 3.6945379637545583e-01  -5.0827459141920472e-03 1.1795340981680444e+00 5.2169173841921779e-01  3.2635641480263783e-01 2.1008436585317161e+00 -3.6864250151298662e-03  3.4148107727890981e-01 1.8361042546214810e+00 2.0983281480836202e-01  1.8685044647754792e-02 1.8027570240426444e-01 1.0073864652880278e+00  -7.3756296309774694e-01 2.5374241207246273e+00 2.0560500523325478e-01  1.7400464292096576e-01 1.6134018341048473e+00 2.2410930377150387e-01  3.1589897269723738e-01 2.3817408204570105e+00 -2.1301101242572706e-01  -3.1914675524037989e-01 5.7030841198365601e-01 9.5314886237842189e-01  -4.9119943792777193e-01 5.6742313997632654e-01 8.9324000545022508e-01  6.0563327330975830e-02 2.2341399721888657e+00 -3.0579789024764353e-01  -1.7640854638537748e-01 1.9839604125978347e+00 -5.9997756303865377e-02  -9.0202392104191764e-01 6.3572871326764446e-01 4.9727156421354396e-01  -9.6767746746201100e-01 8.6238792045386570e-01 3.6588262105362834e-01  -3.6086750901192044e-01 2.1364279219825719e+00 1.5784967004555388e-02  -3.0476362676875324e-01 1.8446606447855800e+00 1.5971484073649914e-01  -1.0088828194222339e+00 2.8364081022097604e-01 1.4519044907404710e-01  7.8735202691627404e-01 1.3589124229992858e-01 6.4531563847434137e-01  -6.4326773230595502e-01 1.3896925462713455e-01 7.8861954212165453e-01  -1.1001325230655801e+00 1.7607597113041658e+00 1.6923888715721108e-01  1.0460498016046871e+00 1.3515793485992165e+00 1.7947128006396790e-01  -4.9834469099632328e-01 8.7372143171037531e-01 8.6916625815070803e-01  -5.9932570490295123e-01 7.3497878658340665e-01 8.3551554006169415e-01  7.1292634339311066e-03 1.5006612547566680e+00 2.6090400090425647e-01  -9.7387482557643368e-01 1.3948763274257134e-01 2.9530543703372725e-01  -5.5463440900400818e-01 2.6328109356672176e+00 -4.8432951747499266e-02  1.0171193084505694e+00 8.5070246449746134e-01 1.3654186380426328e-01  -1.7386587382551194e-01 1.6574554524543110e+00 1.8952399527810002e-01  6.8658382138139340e-01 6.3551275548021491e-01 7.6888564506014501e-01  -9.1168243682548189e-01 3.5579985886285820e-01 4.6275109445871798e-01  2.1807129866673716e-01 2.2488489404850212e+00 -2.2676323161748360e-01  8.2415323386919570e-01 1.5820574576763300e+00 5.8520842549123442e-01  4.7075226861296460e-01 1.1711472667253673e+00 7.5753680526551459e-01  -3.0290248526060981e-01 2.2880354039770960e+00 -1.6570588188125415e-01  7.6338085691267799e-01 1.9453807502466767e+00 4.7895084958793710e-01  9.9366151474208531e-01 1.7431135029463285e+00 4.2087956634795465e-01  -7.4469465848618133e-01 4.5675580727688869e-01 7.0613716215015310e-01  2.1188213382951659e-01 7.4227811779951847e-01 9.3356478521802577e-01  -5.3892223011736917e-01 2.0686972430353867e+00 3.0014648530542748e-01  -5.8484057554736757e-01 1.2380139985664964e+00 7.4500379268846684e-01  -7.3477370876386605e-01 1.0363875273489698e+00 7.3346622291102892e-01  -7.8609434319545801e-01 1.3478015809040333e+00 6.5814801016636471e-01  9.4799805281095006e-01 9.3800980731049943e-01 4.3122372587184832e-01  -9.8427041436422114e-01 1.1803117734888777e+00 3.8127965775709610e-01  8.9759415106287288e-01 1.2519480141849504e-01 4.7947450272895298e-01  9.1668657649991558e-01 3.8430501975402726e-01 4.5393532656443014e-01  -5.9444445935613532e-01 1.5566212933461983e+00 6.1085680824613275e-01  9.8528159643917135e-01 1.4455487955040922e+00 4.3241382341892276e-01  -8.1289461700