<?xml version="1.0"?>
<VTKFile type="UnstructuredGrid"  version="0.1"  >
<UnstructuredGrid>
<Piece  NumberOfPoints="758" NumberOfCells="1386">
<Points>
<DataArray  type="Float64"  NumberOfComponents="3"  format="ascii">-1.570796326794897 3.048 0  -1.570796326794897 0 0  1.570796326794897 0 0  1.570796326794897 3.048 0  0 0 0  0 3.048 0  -1.570796326794897 1.524 0  1.570796326794897 1.524 0  -0.04609926118424437 1.524 0  0.7853981633974483 0 0  0.7623485328053261 2.262242601661362 0  -0.7853981633974483 0 0  -0.7853981633974483 3.048 0  0.392699081698724 0.7745759241961347 0  -1.570796326794897 0.762 0  -0.8084477939895706 2.0955 0  -0.68277245543452 0.8915343570675713 0  0.7853981633974483 3.048 0  0.778743707341909 1.468410948960538 0  2.780093748954961e-16 2.285302774973185 0  -1.570796326794897 2.286 0  1.570796326794897 0.762 0  1.570796326794897 2.286 0  -0.9375370967763674 1.47348297960658 0  0.9831575747762593 0.9003629142671278 0  -0.3926990816987241 0.4064697549061488 0  1.177419588818055 1.905 0  0.3692901340097942 1.880893989147954 0  -0.4920225169641509 2.564371687128368 0  0.3926990816987241 3.048 0  1.178097245096172 0 0  1.155705348811136 2.643920532523289 0  -1.178097245096172 3.048 0  -1.178097245096172 0 0  -0.1391296372266528 0.8873724190154949 0  -1.10527745318919 2.528282743051346 0  -0.9817477042468103 0.4742759268549471 0  -0.3416666987802651 1.923944646262223 0  -1.570796326794897 1.905 0  -1.156555306160469 1.030861936336814 0  0.7648449098493205 0.4764142032227 0  0.3926990816987241 0 0  -0.4820376416180818 1.326151321396512 0  0.06374421723344185 0.4545169930886408 0  0.1972735722393064 1.163324878565267 0  0.3900417218314142 2.566922767651637 0  1.570796326794897 0.381 0  1.188877612935585 1.295195418509834 0  1.179914028402171 0.5308585702661928 0  0.7660075594126428 1.865233039449035 0  0.6330293131838399 1.095171663968746 0  -1.201232463242587 2.144287146570887 0  -0.3926990816987241 0 0  -0.3926990816987241 3.048 0  1.178097245096172 3.048 0  0.7684409382397209 2.649499271873753 0  -1.236954997304436 1.7145 0  -0.1088573452899617 2.666651387486592 0  -1.570796326794897 1.143 0  -1.570796326794897 0.381 0  1.570796326794897 1.143 0  1.570796326794897 1.905 0  1.570796326794897 2.667 0  -1.570796326794897 2.667 0  -0.6730839067294777 1.743003792473746 0  1.199831389396789 2.275437921225198 0  0.3936837537618041 1.495643752599615 0  0.01539369169800942 1.928544709491661 0  0.4156551272669651 0.4219033286010089 0  0.3401546043708642 2.225103550856524 0  -0.3379897306391274 2.262671266279809 0  -1.23624174049596 0.7000907110925838 0  -1.265224057170889 1.360131453617764 0  -0.1224339018241312 1.210043725539656 0  1.289286200625578 0.9918698881707442 0  -0.7751142346211329 1.197848666814478 0  1.003546186550495 0.2660297686099683 0  0.1963495408493621 2.808538634159524 0  -0.8079023568959116 2.703551618159924 0  -0.3480226984353056 1.610059855391589 0  1.075147893506229 1.598068412087719 0  -0.8290627893979112 2.399544545867518 0  0.6965048925255637 0.7972100472372819 0  -1.257765094876752 0.3107645483825858 0  -0.6724835324263325 0.5684215760013651 0  -0.3995059642389676 0.7173610149075536 0  0.9136951972244611 1.187564504803626 0  -0.964259350608907 0.8095514380783081 0  -0.7565990314517038 0.2897049735129544 0  -0.9603859887840651 1.834914433810327 0  -0.1457055965762301 0.2521630699436873 0  0.1963495408493621 0.2041911848053476 0  0.6241974196550791 0.231695999252114 0  -0.4098815011312292 1.029160072548571 0  0.9592800715482012 2.452820690856482 0  0.9648684169153161 2.840751931000357 0  0.5890486225480862 3.048 0  0.164631037784102 1.698913854044779 0  0.5664480837073581 2.070920238540226 0  1.374107957806476 1.7145 0  0.9861079629544779 2.102471438422718 0  -1.374446785945534 3.048 0  -1.288827800789186 2.762781313597598 0  1.353232957571468 2.835634774483438 0  1.302158670506274 0.2650078124691045 0  0.1394669809465775 0.8907702620243092 0  -0.5631487221059602 2.830992231257464 0  1.372837635547072 2.483038902756259 0  -0.1493395228831287 0.618617259260858 0  -1.32327048447753 2.378769394323546 0  0.56080204725298 1.699622905297025 0  1.570796326794897 2.0955 0  0.5403456747786348 2.786446773498672 0  -0.9817477042468103 0 0  -0.5847039960246873 2.326882432521036 0  0.1225428891326576 2.526494255738436 0  -0.9817477042468103 3.048 0  -0.5522901559753841 2.071668786267058 0  -1.370864794258017 0.9075071715671403 0  -1.043891045637083 1.250611220450313 0  -0.1652643923634778 2.09141301924679 0  -1.044446740946883 2.764982067459552 0  -0.1610370079820225 1.763280243096074 0  -0.3136912237752232 2.810498886211121 0  0.5400974078002052 2.370472734822523 0  -0.7009161718414544 1.427243880175582 0  0.902907438200502 0.6735032943420574 0  -0.9879196222361604 0.2371379634274736 0  1.319268546233604 0.7412771512308228 0  0.5578373583610097 0.608241627784878 0  0.5756483102040615 1.332636919938113 0  -0.5281701577409 0.2032348774530744 0  -0.266729509930448 2.489223923247521 0  -1.570796326794897 0.5715 0  -0.2430656531629531 1.405631921096758 0  0.253622337931223 0.5884397663452474 0  1.284044721043478 1.50372037617638 0  1.570796326794897 1.3335 0  -0.9904333867980613 2.235882060371517 0  0.9871146764618406 1.395690276854986 0  -1.374446785945534 0 0  0.3981951765262902 1.020833864419675 0  0.1670583512016766 1.405384478716078 0  -1.330327693484763 1.938638984813805 0  0.2106653067452682 2.040805097078886 0  1.570796326794897 0.5715 0  1.334822181490566 2.081373939821734 0  -0.9303227889097604 1.033236710715967 0  -1.34639228476592 1.150776798768373 0  -1.570796326794897 0.1905 0  1.106697207481837 1.099709897393925 0  0.4137866939027022 0.2104288000383385 0  -1.570796326794897 2.0955 0  0.9761377489246634 0.4754251272674608 0  1.377108465632662 0.4605024587280874 0  1.108114944719677 0.7297638044096917 0  0.3695908229138113 1.285681859811955 0  0.9799112840676307 1.800306505551499 0  -0.001696842075803034 1.042028929293442 0  1.366537356420357 1.185723700290463 0  -1.385029840108318 0.47625 0  0.05842649915411911 0.6874537157920781 0  -1.183268988745763 0.4997334438341218 0  -0.6073502281622543 1.081347079085406 0  -1.026941765261019 2.031536576622642 0  -1.570796326794897 2.8575 0  0.8159726599830506 1.011928543199529 0  0.7652782693277244 2.849245002237192 0  -0.5252326280373281 1.520125074885265 0  0.7648326174724897 2.063743853392348 0  0.757099741434616 1.666331708950521 0  -0.1963495408493621 3.048 0  -0.005410422648647092 2.843333256403111 0  -1.395368347654653 2.19075 0  1.374446785945534 0 0  0.9817477042468103 3.048 0  0.1963495408493621 0 0  -0.1963495408493621 0 0  0.5890486225480862 0 0  0.1963495408493621 3.048 0  0.9817477042468103 0 0  1.374446785945534 3.048 0  -0.5890486225480862 3.048 0  -0.5890486225480862 0 0  -0.06865319188571758 2.471928549109083 0  1.159049337209348 2.838090892449816 0  0.5817075150535711 2.596909954318943 0  0.7656515661107315 2.455866896253367 0  0.9620790410056582 2.647119292933887 0  0.3676829480103987 1.68739481709134 0  -0.8886101495223063 2.878912500124773 0  -0.3317793704126089 0.1873756770788371 0  -1.383208664444332 2.577695923010364 0  -1.043597917648523 1.648216005744782 0  -1.362178343413552 1.546177620526679 0  -1.570796326794897 1.7145 0  -0.8462722504471433 1.648434957877788 0  -0.588076822054871 0.3899352838051667 0  1.570796326794897 2.8575 0  -1.570796326794897 0.9525 0  1.570796326794897 0.1905 0  1.570796326794897 1.7145 0  1.570796326794897 0.9525 0  -1.570796326794897 1.3335 0  1.570796326794897 2.4765 0  -1.570796326794897 2.4765 0  0.8103777117362174 0.287468585434799 0  -1.145334531235929 1.881885620422454 0  -0.8620560674467429 0.6361265362229395 0  -0.321688879263093 1.207848147265888 0  -0.7798551871678058 1.904240998338365 0  -0.4724954359209014 1.769587110195458 0  -0.667402576232105 2.495985359319255 0  0.5365063314111709 0.8945566719544227 0  0.1855702280441107 2.342745654422604 0  0.55510120733165 1.88540118775351 0  1.188295809121239 2.460939894898248 0  1.38587897409014 2.260870763688798 0  1.383978812419919 1.901097375082534 0  -0.2265735189171196 1.049795314962436 0  0.7387890113368257 1.246392780742437 0  0.5763234466275948 1.516457524623135 0  -0.203279258075353 0.4348372558382012 0  -1.179202350299698 1.523245956950107 0  -1.151844216720993 2.318990544544152 0  -1.410806081599612 0.6547540757597369 0  0.04190096621848406 2.108399609871347 0  0.5925649981629265 0.4343292987553075 0  0.2371113691258682 0.4102816185532077 0  1.334103818253725 2.657728219912091 0  0.9405077369493808 2.275181409651143 0  -0.633962040105568 2.669303984283053 0  -0.6045614816381242 1.904349918307267 0  1.159697673803787 2.079238591118184 0  -0.004643801590645341 1.347662554528907 0  0.3691400131247499 2.395423267764724 0  0.3855005143298051 2.055603978165229 0  0.01839821075864462 0.1788084577298442 0  -0.9568120219060965 2.61629404172056 0  0.1783135820912846 1.871116340262054 0  0.3649950158263953 2.745288921627024 0  -0.3142054567155264 0.5671999812317062 0  -0.4933549623779417 0.564740705097546 0  0.06092775470575962 2.685867440722903 0  -0.1801827362748675 2.337517890002858 0  -1.063355415037434 0.6386189748554 0  -1.205242865599393 0.8676070232612285 0  -0.4176020549597784 2.412196127179313 0  -0.3347051678178828 2.093252344225509 0  -1.427772711006951 0.2857500000000001 0  0.8835729338221293 0.1362887052191026 0  -0.6831011505337878 0.1389086130988801 0  -1.403875662049666 1.77648180985222 0  1.394165436236593 1.362588987767805 0  -0.5007942298153729 0.8700626692351643 0  -0.6093220848169366 0.7321530406295067 0  0.007534593095922887 1.760126887057542 0  -1.276272015520854 0.140425968067263 0  -0.7270478511000733 2.847016806985676 0  1.436331331726002 0.85725 0  -0.1770320080670663 1.927167796173981 0  0.7200726153501196 0.6345534912379586 0  -1.099983122078282 0.3577316115390257 0  0.2324759135153202 2.648405702327079 0  0.9054371869972004 1.582409569434113 0  0.5000672234640285 1.188708149930449 0  -0.340793734207542
[...]
<PointData  Vectors="phi"> 
<DataArray  type="Float64"  Name="phi"  NumberOfComponents="3" format="ascii">-1.1643306828481150e+00 3.0421286761347655e+00 6.6252218132814068e-04  -1.0160092365638200e+00 1.0052617472961664e-07 -9.8442575625975783e-06  1.0160093644465955e+00 8.9921661831460674e-08 -1.1672736351842634e-05  1.1643584174639963e+00 3.0421103377732206e+00 5.6155355907283957e-04  -4.7415238685225008e-06 5.1127093485335340e-06 1.0160307627725613e+00  -1.4483787999807641e-03 2.4604315787365394e+00 -6.8103217097081692e-01  -1.0892267441950210e+00 1.5120297235243025e+00 -1.7122793824466054e-05  1.0899054410142728e+00 1.5119232238194356e+00 -2.7648699498319761e-05  -4.7259804948093238e-02 1.2648875474935968e+00 2.7076906441624743e-01  7.1842691900769140e-01 -3.8959198922116750e-07 7.1841609068802303e-01  5.7152759337715642e-01 2.1371551746739796e+00 2.0670841603461057e-01  -7.1842474585521898e-01 8.1209137778321598e-07 7.1841742231498984e-01  -5.6786143116660159e-01 2.7935553365854733e+00 -2.2410497620123171e-01  3.7842298829265503e-01 7.5796472057250319e-01 8.3286330365261008e-01  -1.0217775363082235e+00 7.5701027240315832e-01 -2.2767343250219573e-05  -6.2170281800575489e-01 2.0150820822521016e+00 3.2053160405222120e-01  -6.5532847595202282e-01 8.9437901716405321e-01 7.7138199605105284e-01  5.6679236366864694e-01 2.7927226029383529e+00 -2.2643121315976472e-01  6.7714921602942002e-01 1.4521978030271785e+00 5.8897567771742876e-01  -1.0493493355046880e-03 1.8728089204079350e+00 -1.9109338075810092e-01  -1.1691130281835509e+00 2.2736605209528791e+00 7.8956048923393380e-05  1.0218683932701651e+00 7.5698097169374268e-01 -3.0302517833925631e-05  1.1698619376168129e+00 2.2734876425623716e+00 -9.1998271428330328e-05  -8.3242539776967650e-01 1.4725044635202691e+00 5.5669302842369395e-01  8.7995070661415620e-01 8.9929857256333701e-01 5.7146101263257087e-01  -3.9644519248987109e-01 4.0836828223558308e-01 9.3725414593955980e-01  9.9155692512496096e-01 1.8990153427501966e+00 3.5843147891087701e-01  3.2525142750996666e-01 1.6450130259243607e+00 1.8024242378359034e-01  -3.9491916301998953e-01 2.2589180212028102e+00 -1.3862552188095251e-01  3.1876713777124499e-01 2.6073488652161738e+00 -4.8237476399745682e-01  9.3865812465500953e-01 -4.0395179350407609e-07 3.8880537541051430e-01  8.6577495254781434e-01 2.6006624906387619e+00 1.8548257810774918e-01  -8.3863099901401217e-01 2.9662309372845206e+00 1.8665362019484731e-02  -9.3865779824476858e-01 -8.4916912593405836e-08 3.8881460635569337e-01  -1.3867055991012797e-01 7.8390810423914936e-01 6.9083000648061355e-01  -8.3493483185301076e-01 2.4845261177958751e+00 2.2266240268541446e-01  -8.5568874041707121e-01 4.7307513353886682e-01 5.6832854054140780e-01  -3.0659794636441035e-01 1.6681190045664778e+00 1.3976757899338066e-01  -1.1367215092926686e+00 1.8910949612682424e+00 -2.8742766934259989e-05  -9.6710023579549931e-01 1.0266595450396003e+00 4.1402976840071032e-01  7.1818214593666974e-01 4.7687790985299933e-01 7.3997135365951905e-01  3.8881493526142991e-01 1.9452511960184728e-06 9.3866937781735005e-01  -4.2344119601193869e-01 1.2435781728360606e+00 5.6664793118617729e-01  6.4507752916598521e-02 4.4867208012711929e-01 9.6134109584493876e-01  1.9167743074171550e-01 1.0100428200306166e+00 5.3111390477785680e-01  3.2990936842310487e-01 2.2122297027468640e+00 -2.0777798955740384e-01  1.0188280202037538e+00 3.7855356366250714e-01 -1.9448272604813337e-05  9.9903796767786390e-01 1.2898104836685977e+00 3.8182491175090205e-01  9.4781513180326260e-01 5.2829963692807447e-01 3.8897858161650267e-01  6.1051658466512682e-01 1.8018068601049748e+00 4.1467739785272278e-01  5.8342411761651614e-01 1.0854121526682541e+00 7.2253502316992735e-01  -9.8713794433498259e-01 2.1348678252196858e+00 3.1356036497250500e-01  -3.8880265008153447e-01 -9.7067278857533821e-09 9.3866344778787225e-01  -3.2085589775973217e-01 2.6079879154153049e+00 -4.8085082798035533e-01  8.3799153257154391e-01 2.9654255651257655e+00 1.5892387315771778e-02  5.5913397793824982e-01 2.4603352307762973e+00 -6.4521926487015775e-03  -1.0371657615333278e+00 1.7077364492042832e+00 3.2661480265490328e-01  -1.0929126272719041e-01 2.1888330132045772e+00 -4.0584749041597040e-01  -1.0431649770448908e+00 1.1349941807727784e+00 -2.2221972344240765e-05  -1.0188257712105520e+00 3.7856810686013803e-01 -2.4685431193111532e-05  1.0435308644801642e+00 1.1349322591819957e+00 -1.3652059691447791e-05  1.1374441550534102e+00 1.8909580202474825e+00 -5.2911232243157426e-05  1.1788459644030844e+00 2.6583596616453402e+00 -9.1135861971191527e-05  -1.1780099937019723e+00 2.6584838878478543e+00 5.1703678217530262e-05  -5.4549094420788968e-01 1.6647740680463006e+00 4.3701248513322266e-01  9.6773628755537755e-01 2.2622369354003120e+00 2.9009365330981807e-01  3.4843590959989346e-01 1.3453340921014758e+00 4.2163102510684863e-01  1.4714779521289519e-02 1.5865635296401313e+00 2.2977211987193359e-02  4.1865458195648725e-01 4.2393007164373453e-01 9.2877414625376931e-01  3.0205395672329799e-01 1.9107320402448966e+00 -3.9763051946259016e-02  -3.0173999807851942e-01 1.9407661481487977e+00 -6.1876945055877618e-02  -9.7177135943241877e-01 6.9644555785309747e-01 3.3551752803395496e-01  -1.0291126337754744e+00 1.3527725004852624e+00 3.0780753852836701e-01  -1.2250567432954380e-01 1.0283816797420084e+00 4.7961132238175158e-01  1.0020042553960917e+00 9.8622155594118865e-01 2.8436131013309762e-01  -7.1235174777016141e-01 1.1972034065346626e+00 6.7481978345337201e-01  8.6125010559956783e-01 2.6518281111905601e-01 5.4752790616806013e-01  1.8218922047851629e-01 2.3291166998491932e+00 -4.5659568759804398e-01  -5.8428481215294836e-01 2.5235483880034346e+00 -1.0086733072118562e-02  -3.1370608013401940e-01 1.4183647805223356e+00 3.2966759805608520e-01  9.3657622472930702e-01 1.5960046369317360e+00 4.6102706114754954e-01  -6.1181406131241922e-01 2.2806771623421076e+00 1.7208794930317131e-01  6.7259926270059778e-01 8.0028806776116235e-01 7.7771011723458183e-01  -9.7012179924683806e-01 3.0906573282511729e-01 3.1362807211219335e-01  -6.5145297744862662e-01 5.7012627223149637e-01 8.0272701240578559e-01  -3.8969230854154857e-01 7.0906587070204630e-01 8.6177907090793382e-01  8.3710722756082612e-01 1.1893216188828857e+00 6.1184813918863934e-01  -8.6415242243763579e-01 8.0854138782431395e-01 5.8749176796809599e-01  -7.0422931641791353e-01 2.8981963562252849e-01 7.4211924161405973e-01  -8.0223538299933139e-01 1.8203245435345519e+00 4.5959305313637394e-01  -1.4897431940367634e-01 2.5305956606416630e-01 9.9746068849099712e-01  1.9984035614355264e-01 2.0514530312572501e-01 9.9217391756511308e-01  5.9904725801635006e-01 2.3223086220789180e-01 8.2703540596684200e-01  -3.7888650952581293e-01 9.7476003211536699e-01 7.0105054008769507e-01  7.1079094970102508e-01 2.3746115211162455e+00 2.0684943249986684e-01  6.8827514429990300e-01 2.7046440096043023e+00 5.1266102322127683e-03  4.4462191572442927e-01 2.6994068445424122e+00 -3.5546033765636947e-01  1.6079635964059164e-01 1.4245491193174655e+00 1.9035804874530113e-01  4.4989418855594782e-01 1.8905025998320917e+00 1.9317002692450996e-01  1.0903639897468291e+00 1.7033755738461880e+00 1.9793454237210723e-01  7.8379909292650896e-01 2.0716261433985292e+00 3.6683264746921185e-01  -1.0157712525765856e+00 3.0246144732365208e+00 9.5852813074430984e-02  -9.7885340371570029e-01 2.7381133817096970e+00 1.6284307943648468e-01  1.0302587479034915e+00 2.8168452626770351e+00 1.3904413691874365e-01  9.8235861164339300e-01 2.6349186657936874e-01 2.7023774178650489e-01  1.3843005005506062e-01 7.8623745146312818e-01 6.8810014295370781e-01  -4.3068127304260390e-01 2.5120758235938871e+00 -2.4375059879532773e-01  1.0948050481974438e+00 2.4725591576884209e+00 1.7599829610778769e-01  -1.4850144655404526e-01 5.8834363261313305e-01 8.7470022447892104e-01  -1.0653879048099497e+00 2.3681685528563916e+00 2.1675335769609366e-01  4.6183736308155038e-01 1.5830058526384443e+00 3.9969043398095727e-01  1.1562189977035449e+00 2.0818787840570177e+00 -2.3962367330246700e-05  4.1632622320427831e-01 2.4640173468102349e+00 -2.3504669557730062e-01  -8.4477549755731174e-01 1.9574699422000949e-07 5.6446295510554068e-01  -4.5497856785859825e-01 2.1092837715399235e+00 5.9920125904967092e-02  1.2019366829016967e-01 2.0794854455662666e+00 -3.1805590775064702e-01  -6.9475357748960487e-01 2.8844900355544758e+00 -9.7333441044184052e-02  -4.4176124596529887e-01 1.8849819787944979e+00 1.8523678127073956e-01  -1.0112997256287499e+00 9.0193174626886807e-01 2.0258570357276012e-01  -9.2656603451697572e-01 1.2494688299421999e+00 5.1215373775628659e-01  -1.6271170494408396e-01 1.7400166811697488e+00 -4.4362580802439495e-02  -7.5370988975835773e-01 2.6731179726069541e+00 9.1403602708874321e-02  -1.5889282323213944e-01 1.4752580736354068e+00 1.5075511287341917e-01  -2.7220081416715458e-01 2.3790800249778115e+00 -3.9211373615355355e-01  4.2656616687400600e-01 2.1227569275895841e+00 3.3545094087482643e-03  -6.0696714589348955e-01 1.3992948593461840e+00 5.9745589267536459e-01  8.2065147750754053e-01 6.7307097182952547e-01 6.3739728639125348e-01  -8.5199303610817367e-01 2.3642054075136104e-01 5.6064695615167437e-01  9.9457429969800160e-01 7.3695170145218791e-01 2.5392473279067940e-01  5.5215788726447468e-01 6.1107823155221275e-01 8.6106037257847123e-01  5.0132211993396614e-01 1.2815741002648433e+00 6.0325664168747051e-01  -5.1628798506254248e-01 2.0393553740021669e-01 8.7949017793788953e-01  -2.4654598196171484e-01 2.0957121776275436e+00 -2.3410924960231497e-01  -1.0194862386690968e+00 5.6779759485317194e-01 -1.5135154637829014e-05  -2.3179839933173049e-01 1.2152001262670575e+00 4.0029137259161551e-01  2.5192259276357098e-01 5.7756072558064964e-01 9.0707041689463419e-01  1.0471066999125243e+00 1.4954192472531134e+00 2.8803737611069391e-01  1.0650214861163352e+00 1.3233997520084044e+00 -1.6127716740458007e-05  -7.6787842170254694e-01 2.1935933980391318e+00 3.1711107399035332e-01  8.8228604985845449e-01 1.3960346695081982e+00 5.4178242262965970e-01  -9.9647563840718090e-01 -5.3567467102591924e-07 1.9820689305693001e-01  3.6850838301426703e-01 9.6401270322450527e-01 7.0026310980450179e-01  1.6341178901781600e-01 1.1918511543863810e+00 3.7042992623875043e-01  -1.0863732587933332e+00 1.9289700467819089e+00 2.3580426668067733e-01  2.0138858002587248e-01 1.7123295464862101e+00 2.8763292333210478e-03  1.0195213457795713e+00 5.6777409568139869e-01 -2.7801524682242955e-05  1.0894299521871373e+00 2.0716994475165040e+00 2.2679937927191901e-01  -8.5244242569187545e-01 1.0339962684842490e+00 6.1175779277115527e-01  -1.0263817349792843e+00 1.1435544291198467e+00 2.2756653508444077e-01  -1.0177270068556861e+00 1.8932119399042122e-01 -3.3477973505378223e-05  9.5275166615837037e-01 1.0963994669450492e+00 4.6061031511649742e-01  4.1242739759211056e-01 2.1140788691888870e-01 9.3120952058588957e-01  -1.1553305913413641e+00 2.0819951458375630e+00 -2.8731377624133311e-05  8.5277918659219554e-01 4.7426187558391519e-01 5.7319254202587755e-01  1.0010189655090818e+00 4.5768742716270222e-01 1.9602669390654670e-01  9.2834902468251046e-01 7.2697846108614672e-01 4.5792765121897960e-01  3.3511512243419944e-01 1.1668799777486050e+00 5.3262894233556457e-01  8.2648875254077014e-01 1.7897123968235948e+00 4.6523320718975764e-01  -2.1188278456574297e-03 8.8595206544461447e-01 5.7150959141574753e-01  1.0334053171548898e+00 1.1779877512286527e+00 2.0734198182876290e-01  -1.0025513049418484e+00 4.7334114454415527e-01 1.8808477487819944e-01  5.8383129821851995e-02 6.2690502173258811e-01 8.1438743420512372e-01  -9.4814767486585505e-01 4.9730963351345908e-01 3.8563527815314530e-01  -5.5987690212254115e-01 1.0689670699849314e+00 7.2761854084944755e-01  -8.3681025151679311e-01 2.0132806113641801e+00 3.9213170339426373e-01  -1.1735577680716489e+00 2.8508150802054106e+00 1.7572261359369843e-04  7.6625042267116417e-01 1.0148036156615874e+00 6.8991384183410187e-01  5.5394529542311133e-01 2.6222781579921923e+00 -1.2340139087943169e-01  -4.4614924757854862e-01 1.4204544670336516e+00 4.8112997536361052e-01  5.8879066561961890e-01 1.9711773371782146e+00 3.1402145647949203e-01  6.2754907185202680e-01 1.6254507158989044e+00 5.0467650181958412e-01  -1.8063785582485067e-01 2.5212800111349751e+00 -5.9887475521578348e-01  -6.8617391894207746e-03 2.3150957672947894e+00 -5.3157388229765856e-01  -1.1204528620525624e+00 2.1800622571191770e+00 1.7090020527900315e-01  9.9647652087717631e-01 -5.3243690006285683e-07 1.9820962084817728e-01  6.9401009513906065e-01 2.8836429381931348e+00 -1.0002243950075496e-01  1.9820834872651086e-01 -7.9087280956864476e-08 9.9648563626481113e-01  -1.9821493387542410e-01 -1.6746999947602955e-06 9.9647709144542251e-01  5.6445693519780105e-01 8.6026856280669648e-08 8.4477572063556450e-01  1.7793294267405430e-01 2.5208951002973414e+00 -5.9988328801088109e-01  8.4477841596005421e-01 -1.6276643534029515e-07 5.6446218681139115e-01  1.0147706106019019e+00 3.0244366417167137e+00 9.3841123882012684e-02  -4.4619683853149267e-01 2.7001256580650965e+00 -3.5355216976426423e-01  -5.6446295717024009e-01 -8.8421650038677215e-07 8.4477298596533035e-01  -7.0301933792642879e-02 2.0264762408702039e+00 -2.9730883733920194e-01  8.4352812231753815e-01 2.7745816990087979e+00 1.0395670952138278e-01  4.4601512297711304e-01 2.3283967514860526e+00 -9.9065592839008162e-02  5.6360652251599308e-01 2.2995044582227244e+00 1.0149598223376806e-01  6.9603543675793456e-01 2.5414398191677821e+00 1.0884118834975874e-01  3.2610608878201514e-01 1.4885165228869894e+00 2.9381566460042297e-01  -6.3492464602513088e-01 2.7037908029791375e+00 -5.9833692774584564e-02  -3.3370318697712847e-01 1.8831627839219539e-01 9.6014145321582445e-01  -1.0943686705758477e+00 2.5670168521683592e+00 1.6314347336139776e-01  -9.0679810062408406e-01 1.6457890553487871e+00 4.7406069539281670e-01  -1.0711548568230187e+00 1.5359534566377306e+00 2.1099453544494093e-01  -1.1140197418516598e+00 1.7011519302609062e+00 -2.2476695284188723e-05  -7.1763416862984786e-01 1.6297138841829044e+00 5.2697533238039451e-01  -5.7471649320036688e-01 3.9121502435543171e-01 8.5108560851645387e-01  1.1743048549122477e+00 2.8507395220262612e+00 -3.2143315038218023e-06  -1.0287479879206705e+00 9.4614784048319944e-01 -1.6716270096812080e-05  1.0177221380544128e+00 1.8931418237166830e-01 -2.9321906217399382e-05  1.1148094837128459e+00 1.7010219791314707e+00 -1.6693126650212183e-05  1.0289198150104442e+00 9.4610795121909574e-01 -4.7057318482163053e-05  -1.0644713821006502e+00 1.3234843245125372e+00 -2.7862725737750107e-05  1.1773372076441289e+00 2.4658282950333503e+00 -4.2395814464870421e-05  -1.1765038812123518e+00 2.4659527047223060e+00 9.0859056853827275e-05  7.4252875547617758e-01 2.8735371018924760e-01 7.0320223901553380e-01  -9.6821564662229531e-01 1.8764015996878138e+00 3.8192814067367831e-01  -7.9287901391668758e-01 6.3608095874158010e-01 6.6959477912662413e-01  -2.9890717627403468e-01 1.0869372647800886e+00 5.5678480645984907e-01  -6.1861766205022783e-01 1.8405807768332085e+00 4.0294394928895394e-01  -3.9831109369621653e-01 1.6017367201258279e+00 3.0899361462545327e-01  -5.0043881125488965e-01 2.2876341045416932e+00 1.7854844495303879e-02  5.1012216003967847e-01 8.8762991227937449e-01 7.9610230353148548e-01  1.7859708104058072e-01 1.9481877008181381e+00 -1.8676109330900650e-01  4.4900224636403280e-01 1.7333454075301167e+00 2.9190358815464879e-01  9.2743571542879932e-01 2.4379520559530068e+00 2.4869009572570755e-01  1.1153163702412494e+00 2.2504389791772255e+00 1.7697756415654595e-01  1.1068849131293317e+00 1.8897359850492212e+00 1.8646487559477853e-01  -2.1936961923712406e-01 9.3063945236586887e-01 6.1363037045597879e-01  6.6928162302409677e-01 1.2401427658870507e+00 6.6648651976792472e-01  4.8596841729707124e-01 1.4370270906654838e+00 5.0779372182404026e-01  -2.0656875650621598e-01 4.3406117331123212e-01 9.6702287188689628e-01  -1.0049323563723640e+00 1.5183307695407833e+00 3.8515994888966582e-01  -9.1477190170356681e-01 2.2995413658289854e+00 2.9356963983466455e-01  -1.0087362547920855e+00 6.5066985364318863e-01 1.6219770362246269e-01  4.1364252679721852e-02 1.7322313807912979e+00 -8.3270033007102520e-02  5.8020809741882773e-01 4.3585070784115587e-01 8.4905524528942311e-01  2.4135398542846048e-01 4.1081444819965457e-01 9.6928919197740693e-01  1.0401044225336860e+00 2.6426683099251007e+00 1.7613803077173723e-01  7.1503064358687440e-01 2.2142118718912629e+00 2.8441975794769830e-01  -4.7656090190917572e-01 2.4136719428223219e+00 -1.0379326064589207e-01  -4.8241775981743301e-01 1.7715672706808738e+00 3.1279017702930673e-01  9.5764488904955303e-01 2.0697532498396058e+00 3.4292553299936185e-01  -5.3147833338445362e-03 1.1237124129385780e+00 3.7757794726514465e-01  3.1986909435996513e-01 2.0622003710514916e+00 -1.2183200450566589e-01  3.3481242103004655e-01 1.7934530871875880e+00 8.7024894752295370e-02  1.8786546150592248e-02 1.7954086999366778e-01 1.0093648386360314e+00  -6.9451536190742635e-01 2.5140583632662654e+00 1.2483910019026855e-01  1.7304464659599356e-01 1.5661364811644574e+00 9.1445988395222236e-02  3.0762577093778393e-01 2.3475972561979099e+00 -3.2521580031014435e-01  -3.1388907960082113e-01 5.6409625864487589e-01 9.2025512226895989e-01  -4.9247854074902325e-01 5.6731007690470703e-01 8.9035808446236786e-01  6.0090387762365506e-02 2.1953249205288419e+00 -4.2887302765367846e-01  -1.7580475553142511e-01 1.9426995111032643e+00 -1.8504140337041960e-01  -9.0394279130203070e-01 6.3647711943588525e-01 4.9813623946859636e-01  -9.7114110481301918e-01 8.6340288173976509e-01 3.6647834485900305e-01  -3.5271422753402587e-01 2.0987392065572630e+00 -9.9778591662950222e-02  -3.0059265541438507e-01 1.8019828443147330e+00 3.5830185938458388e-02  -1.0082302359489257e+00 2.8399543474680056e-01 1.4512029370148122e-01  7.8723666755690069e-01 1.3603883000855141e-01 6.4525157959461188e-01  -6.4366516816873875e-01 1.3905878271583882e-01 7.8898113291042515e-01  -1.1027097289386349e+00 1.7646946146622786e+00 1.6827418630890703e-01  1.0568794760148277e+00 1.3530545384528034e+00 1.7941018799310490e-01  -4.7711920127953611e-01 8.6051076890405409e-01 8.0498749546046389e-01  -5.9623377312112891e-01 7.3523856323085512e-01 8.2562470782022834e-01  6.8429702253119387e-03 1.4513572654871632e+00 1.2438127051273203e-01  -9.7356297828892469e-01 1.3965775556386226e-01 2.9523503061754891e-01  -5.3094801513770329e-01 2.6032425824118217e+00 -1.4483720169101158e-01  1.0175403491668389e+00 8.5175006625422911e-01 1.3651124739623977e-01  -1.7345273675515549e-01 1.6110583929652118e+00 5.7985849487904285e-02  6.9154053876953436e-01 6.3626295396483334e-01 7.7208687028423861e-01  -9.1101679419761894e-01 3.5624219436156573e-01 4.6255993015111846e-01  2.1501764317846547e-01 2.2118597719461657e+00 -3.4558800696020420e-01  7.8641192305545971e-01 1.5755755108399481e+00 5.4097140495576634e-01  4.4713603253483497e-01 1.1355470131440066e+00 6.4844799041464896e-01  -2.9686885625604348e-01 2.2524662051919893e+00 -2.8029902812975521e-01  7.1703803919014431e-01 1.9275093992141670e+00 4.0830112180749489e-01  9.7007880275588720e-01 1.7450724076707269e+00 4.0498143041054063e-01  -7.4739364295759325e-01 4.5720067615325471e-01 7.0836242571514230e-01  2.0597781852117417e-01 6.9356399706322014e-01 8.0374786339732762e-01  -5.1321177506373095e-01 2.0343000796572719e+00 1.9573506107236532e-01  -5.5258991014164816e-01 1.2157915662699719e+00 6.6132502057068554e-01  -7.2087006423058886e-01 1.0362510110079679e+00 7.1272143820679290e-01  -7.5628002805791872e-01 1.3436362158724966e+00 6.2023571239905118e-01  9.5366278035938601e-01 9.3915322451325589e-01 4.3216423403179127e-01  -9.9127203300476929e-01 1.1818971557714832e+00 3.8113262068867343e-01  8.9733140281386514e-01 1.2534439932962246e-01 4.7937269412598604e-01  9.1607475129605931e-01 3.8478309413108663e-01 4.5377959890907971e-01  -5.6025125120959929e-01 1.5280211490436209e+00 5.1646793569581873e-01  9.8058615182204933e-01 1.4482577027990420e+00 4.2647801665035051e-01  -7