<?xml version="1.0"?>
<VTKFile type="UnstructuredGrid"  version="0.1"  >
<UnstructuredGrid>
<Piece  NumberOfPoints="758" NumberOfCells="1386">
<Points>
<DataArray  type="Float64"  NumberOfComponents="3"  format="ascii">-1.570796326794897 3.048 0  -1.570796326794897 0 0  1.570796326794897 0 0  1.570796326794897 3.048 0  0 0 0  0 3.048 0  -1.570796326794897 1.524 0  1.570796326794897 1.524 0  -0.04609926118424437 1.524 0  0.7853981633974483 0 0  0.7623485328053261 2.262242601661362 0  -0.7853981633974483 0 0  -0.7853981633974483 3.048 0  0.392699081698724 0.7745759241961347 0  -1.570796326794897 0.762 0  -0.8084477939895706 2.0955 0  -0.68277245543452 0.8915343570675713 0  0.7853981633974483 3.048 0  0.778743707341909 1.468410948960538 0  2.780093748954961e-16 2.285302774973185 0  -1.570796326794897 2.286 0  1.570796326794897 0.762 0  1.570796326794897 2.286 0  -0.9375370967763674 1.47348297960658 0  0.9831575747762593 0.9003629142671278 0  -0.3926990816987241 0.4064697549061488 0  1.177419588818055 1.905 0  0.3692901340097942 1.880893989147954 0  -0.4920225169641509 2.564371687128368 0  0.3926990816987241 3.048 0  1.178097245096172 0 0  1.155705348811136 2.643920532523289 0  -1.178097245096172 3.048 0  -1.178097245096172 0 0  -0.1391296372266528 0.8873724190154949 0  -1.10527745318919 2.528282743051346 0  -0.9817477042468103 0.4742759268549471 0  -0.3416666987802651 1.923944646262223 0  -1.570796326794897 1.905 0  -1.156555306160469 1.030861936336814 0  0.7648449098493205 0.4764142032227 0  0.3926990816987241 0 0  -0.4820376416180818 1.326151321396512 0  0.06374421723344185 0.4545169930886408 0  0.1972735722393064 1.163324878565267 0  0.3900417218314142 2.566922767651637 0  1.570796326794897 0.381 0  1.188877612935585 1.295195418509834 0  1.179914028402171 0.5308585702661928 0  0.7660075594126428 1.865233039449035 0  0.6330293131838399 1.095171663968746 0  -1.201232463242587 2.144287146570887 0  -0.3926990816987241 0 0  -0.3926990816987241 3.048 0  1.178097245096172 3.048 0  0.7684409382397209 2.649499271873753 0  -1.236954997304436 1.7145 0  -0.1088573452899617 2.666651387486592 0  -1.570796326794897 1.143 0  -1.570796326794897 0.381 0  1.570796326794897 1.143 0  1.570796326794897 1.905 0  1.570796326794897 2.667 0  -1.570796326794897 2.667 0  -0.6730839067294777 1.743003792473746 0  1.199831389396789 2.275437921225198 0  0.3936837537618041 1.495643752599615 0  0.01539369169800942 1.928544709491661 0  0.4156551272669651 0.4219033286010089 0  0.3401546043708642 2.225103550856524 0  -0.3379897306391274 2.262671266279809 0  -1.23624174049596 0.7000907110925838 0  -1.265224057170889 1.360131453617764 0  -0.1224339018241312 1.210043725539656 0  1.289286200625578 0.9918698881707442 0  -0.7751142346211329 1.197848666814478 0  1.003546186550495 0.2660297686099683 0  0.1963495408493621 2.808538634159524 0  -0.8079023568959116 2.703551618159924 0  -0.3480226984353056 1.610059855391589 0  1.075147893506229 1.598068412087719 0  -0.8290627893979112 2.399544545867518 0  0.6965048925255637 0.7972100472372819 0  -1.257765094876752 0.3107645483825858 0  -0.6724835324263325 0.5684215760013651 0  -0.3995059642389676 0.7173610149075536 0  0.9136951972244611 1.187564504803626 0  -0.964259350608907 0.8095514380783081 0  -0.7565990314517038 0.2897049735129544 0  -0.9603859887840651 1.834914433810327 0  -0.1457055965762301 0.2521630699436873 0  0.1963495408493621 0.2041911848053476 0  0.6241974196550791 0.231695999252114 0  -0.4098815011312292 1.029160072548571 0  0.9592800715482012 2.452820690856482 0  0.9648684169153161 2.840751931000357 0  0.5890486225480862 3.048 0  0.164631037784102 1.698913854044779 0  0.5664480837073581 2.070920238540226 0  1.374107957806476 1.7145 0  0.9861079629544779 2.102471438422718 0  -1.374446785945534 3.048 0  -1.288827800789186 2.762781313597598 0  1.353232957571468 2.835634774483438 0  1.302158670506274 0.2650078124691045 0  0.1394669809465775 0.8907702620243092 0  -0.5631487221059602 2.830992231257464 0  1.372837635547072 2.483038902756259 0  -0.1493395228831287 0.618617259260858 0  -1.32327048447753 2.378769394323546 0  0.56080204725298 1.699622905297025 0  1.570796326794897 2.0955 0  0.5403456747786348 2.786446773498672 0  -0.9817477042468103 0 0  -0.5847039960246873 2.326882432521036 0  0.1225428891326576 2.526494255738436 0  -0.9817477042468103 3.048 0  -0.5522901559753841 2.071668786267058 0  -1.370864794258017 0.9075071715671403 0  -1.043891045637083 1.250611220450313 0  -0.1652643923634778 2.09141301924679 0  -1.044446740946883 2.764982067459552 0  -0.1610370079820225 1.763280243096074 0  -0.3136912237752232 2.810498886211121 0  0.5400974078002052 2.370472734822523 0  -0.7009161718414544 1.427243880175582 0  0.902907438200502 0.6735032943420574 0  -0.9879196222361604 0.2371379634274736 0  1.319268546233604 0.7412771512308228 0  0.5578373583610097 0.608241627784878 0  0.5756483102040615 1.332636919938113 0  -0.5281701577409 0.2032348774530744 0  -0.266729509930448 2.489223923247521 0  -1.570796326794897 0.5715 0  -0.2430656531629531 1.405631921096758 0  0.253622337931223 0.5884397663452474 0  1.284044721043478 1.50372037617638 0  1.570796326794897 1.3335 0  -0.9904333867980613 2.235882060371517 0  0.9871146764618406 1.395690276854986 0  -1.374446785945534 0 0  0.3981951765262902 1.020833864419675 0  0.1670583512016766 1.405384478716078 0  -1.330327693484763 1.938638984813805 0  0.2106653067452682 2.040805097078886 0  1.570796326794897 0.5715 0  1.334822181490566 2.081373939821734 0  -0.9303227889097604 1.033236710715967 0  -1.34639228476592 1.150776798768373 0  -1.570796326794897 0.1905 0  1.106697207481837 1.099709897393925 0  0.4137866939027022 0.2104288000383385 0  -1.570796326794897 2.0955 0  0.9761377489246634 0.4754251272674608 0  1.377108465632662 0.4605024587280874 0  1.108114944719677 0.7297638044096917 0  0.3695908229138113 1.285681859811955 0  0.9799112840676307 1.800306505551499 0  -0.001696842075803034 1.042028929293442 0  1.366537356420357 1.185723700290463 0  -1.385029840108318 0.47625 0  0.05842649915411911 0.6874537157920781 0  -1.183268988745763 0.4997334438341218 0  -0.6073502281622543 1.081347079085406 0  -1.026941765261019 2.031536576622642 0  -1.570796326794897 2.8575 0  0.8159726599830506 1.011928543199529 0  0.7652782693277244 2.849245002237192 0  -0.5252326280373281 1.520125074885265 0  0.7648326174724897 2.063743853392348 0  0.757099741434616 1.666331708950521 0  -0.1963495408493621 3.048 0  -0.005410422648647092 2.843333256403111 0  -1.395368347654653 2.19075 0  1.374446785945534 0 0  0.9817477042468103 3.048 0  0.1963495408493621 0 0  -0.1963495408493621 0 0  0.5890486225480862 0 0  0.1963495408493621 3.048 0  0.9817477042468103 0 0  1.374446785945534 3.048 0  -0.5890486225480862 3.048 0  -0.5890486225480862 0 0  -0.06865319188571758 2.471928549109083 0  1.159049337209348 2.838090892449816 0  0.5817075150535711 2.596909954318943 0  0.7656515661107315 2.455866896253367 0  0.9620790410056582 2.647119292933887 0  0.3676829480103987 1.68739481709134 0  -0.8886101495223063 2.878912500124773 0  -0.3317793704126089 0.1873756770788371 0  -1.383208664444332 2.577695923010364 0  -1.043597917648523 1.648216005744782 0  -1.362178343413552 1.546177620526679 0  -1.570796326794897 1.7145 0  -0.8462722504471433 1.648434957877788 0  -0.588076822054871 0.3899352838051667 0  1.570796326794897 2.8575 0  -1.570796326794897 0.9525 0  1.570796326794897 0.1905 0  1.570796326794897 1.7145 0  1.570796326794897 0.9525 0  -1.570796326794897 1.3335 0  1.570796326794897 2.4765 0  -1.570796326794897 2.4765 0  0.8103777117362174 0.287468585434799 0  -1.145334531235929 1.881885620422454 0  -0.8620560674467429 0.6361265362229395 0  -0.321688879263093 1.207848147265888 0  -0.7798551871678058 1.904240998338365 0  -0.4724954359209014 1.769587110195458 0  -0.667402576232105 2.495985359319255 0  0.5365063314111709 0.8945566719544227 0  0.1855702280441107 2.342745654422604 0  0.55510120733165 1.88540118775351 0  1.188295809121239 2.460939894898248 0  1.38587897409014 2.260870763688798 0  1.383978812419919 1.901097375082534 0  -0.2265735189171196 1.049795314962436 0  0.7387890113368257 1.246392780742437 0  0.5763234466275948 1.516457524623135 0  -0.203279258075353 0.4348372558382012 0  -1.179202350299698 1.523245956950107 0  -1.151844216720993 2.318990544544152 0  -1.410806081599612 0.6547540757597369 0  0.04190096621848406 2.108399609871347 0  0.5925649981629265 0.4343292987553075 0  0.2371113691258682 0.4102816185532077 0  1.334103818253725 2.657728219912091 0  0.9405077369493808 2.275181409651143 0  -0.633962040105568 2.669303984283053 0  -0.6045614816381242 1.904349918307267 0  1.159697673803787 2.079238591118184 0  -0.004643801590645341 1.347662554528907 0  0.3691400131247499 2.395423267764724 0  0.3855005143298051 2.055603978165229 0  0.01839821075864462 0.1788084577298442 0  -0.9568120219060965 2.61629404172056 0  0.1783135820912846 1.871116340262054 0  0.3649950158263953 2.745288921627024 0  -0.3142054567155264 0.5671999812317062 0  -0.4933549623779417 0.564740705097546 0  0.06092775470575962 2.685867440722903 0  -0.1801827362748675 2.337517890002858 0  -1.063355415037434 0.6386189748554 0  -1.205242865599393 0.8676070232612285 0  -0.4176020549597784 2.412196127179313 0  -0.3347051678178828 2.093252344225509 0  -1.427772711006951 0.2857500000000001 0  0.8835729338221293 0.1362887052191026 0  -0.6831011505337878 0.1389086130988801 0  -1.403875662049666 1.77648180985222 0  1.394165436236593 1.362588987767805 0  -0.5007942298153729 0.8700626692351643 0  -0.6093220848169366 0.7321530406295067 0  0.007534593095922887 1.760126887057542 0  -1.276272015520854 0.140425968067263 0  -0.7270478511000733 2.847016806985676 0  1.436331331726002 0.85725 0  -0.1770320080670663 1.927167796173981 0  0.7200726153501196 0.6345534912379586 0  -1.099983122078282 0.3577316115390257 0  0.2324759135153202 2.648405702327079 0  0.9054371869972004 1.582409569434113 0  0.5000672234640285 1.188708149930449 0  -0.340793734207542
[...]
<PointData  Vectors="phi"> 
<DataArray  type="Float64"  Name="phi"  NumberOfComponents="3" format="ascii">-1.2617778508102055e+00 3.0203836627498402e+00 3.1467916173397165e-04  -1.0160120955275000e+00 6.2645053281195890e-08 -9.2447255527387425e-06  1.0160121487900715e+00 3.5400717121446055e-08 -1.1058934101482589e-05  1.2620171851807547e+00 3.0203240857982303e+00 2.5106350875638570e-04  -5.8303086213503749e-06 3.2755104157344613e-07 1.0160215802332666e+00  -6.3624787250302745e-04 2.5535616764334357e+00 -4.1196337674288092e-01  -1.0640063049825537e+00 1.5093763064003558e+00 -1.6872187661385137e-05  1.0643041473384807e+00 1.5093160942530928e+00 -2.5164165873164479e-05  -4.6878548115131174e-02 1.3831874164025120e+00 5.6837228315871224e-01  7.1842698664929316e-01 -2.1090094081654131e-07 7.1841663950369195e-01  6.4200744947710864e-01 2.2029518013298386e+00 4.1364722789768782e-01  -7.1842418876638914e-01 -1.9685467834672184e-07 7.1841865089642787e-01  -6.1450211825202583e-01 2.8635300575164240e+00 -1.0498799919366027e-02  3.9605142279562239e-01 7.7925424543016042e-01 9.2027564069493895e-01  -1.0238772357474639e+00 7.5524825528683381e-01 -2.1538529333184076e-05  -7.0516165676922182e-01 2.0684809761901399e+00 5.0392792703215927e-01  -6.6240312592367112e-01 8.9360442899956150e-01 7.8901826556158905e-01  6.1418001351593532e-01 2.8629903346465828e+00 -1.1987262580727033e-02  7.4581442892556693e-01 1.4716325093459384e+00 6.9849030053418348e-01  -4.5700098237302797e-04 1.9736080728562233e+00 8.5555912092883837e-02  -1.1812896200137168e+00 2.2597805003720692e+00 1.0356242164245114e-05  1.0239094394420791e+00 7.5523016013136246e-01 -3.0597948237832505e-05  1.1818323380163767e+00 2.2596660340969348e+00 -5.9250302000912745e-05  -8.7365322726013117e-01 1.4723746400212943e+00 6.0157246880422188e-01  8.7147757656401892e-01 8.9695971564490629e-01 5.6895541365972879e-01  -3.9158138818728139e-01 4.0910468639535091e-01 9.3033436122731306e-01  1.0334008780100834e+00 1.8939712157609474e+00 3.8626605453711849e-01  3.3922599956631833e-01 1.7447019444365488e+00 4.4748179313819680e-01  -4.1940050547493346e-01 2.3423815038254117e+00 1.0398335134896790e-01  3.3896301388367739e-01 2.6856067018962255e+00 -2.4324069769473855e-01  9.3865721210118769e-01 -4.4394566691375670e-07 3.8880525988022180e-01  9.7785046372778295e-01 2.6219398902290152e+00 2.9650923256275946e-01  -9.4770170219940986e-01 3.0003269178891361e+00 1.5892345955287537e-01  -9.3865708328003439e-01 -2.1744143837483669e-07 3.8881448635213423e-01  -1.4219701223357503e-01 8.9104276282687334e-01 9.5456834455421891e-01  -9.4330638891978325e-01 2.5086278908851765e+00 3.4031211077786372e-01  -8.5557204810030585e-01 4.7197688205844973e-01 5.6802885569168948e-01  -3.1691244526743123e-01 1.7682218373727792e+00 4.0832891986598346e-01  -1.1199355222204690e+00 1.8840250704258743e+00 -2.4570555301711125e-05  -9.5770566421266767e-01 1.0243080216343539e+00 4.1275330944870142e-01  7.1432738299939180e-01 4.7601063779039277e-01 7.3651253310855691e-01  3.8881368394544036e-01 9.5399766721985502e-07 9.3866789856644894e-01  -4.6714560234117303e-01 1.3200919038819541e+00 7.9558707887117563e-01  6.4671461816346892e-02 4.5850754159396551e-01 9.8858139826754787e-01  1.9547151259282586e-01 1.1378361666020231e+00 8.3529289539857987e-01  3.4571326877960423e-01 2.2992811074428219e+00 4.3543621872301985e-02  1.0200067955279666e+00 3.7767624958209406e-01 -1.9568637907640291e-05  9.8626404671936196e-01 1.2865614082816894e+00 3.8265262784792142e-01  9.4893277125635356e-01 5.2705104073934006e-01 3.8921874055503614e-01  6.9223818314251950e-01 1.8518606161688826e+00 5.9267970967891270e-01  6.2492482654884596e-01 1.0995252028699440e+00 8.1069984860783773e-01  -1.0531553361096677e+00 2.1317641794800282e+00 3.5344008651425429e-01  -3.8880191006432036e-01 -3.1003303560279230e-07 9.3865682780778992e-01  -3.3987532470759146e-01 2.6860042446950207e+00 -2.4232830979820766e-01  9.4736540759130738e-01 2.9999491109606180e+00 1.5755902836428740e-01  6.1765329144961945e-01 2.5302168714801780e+00 2.0777682227631258e-01  -1.0424304528165493e+00 1.7017050576823458e+00 3.3537617343946469e-01  -1.0928781544575875e-01 2.2826644634385449e+00 -1.3885333999493676e-01  -1.0348219901188171e+00 1.1327088342765377e+00 -2.4448603600803600e-05  -1.0200135540439488e+00 3.7768476129485756e-01 -2.4499861573945496e-05  1.0349089295756986e+00 1.1326780464251753e+00 -1.2145461097478487e-05  1.1204613266352721e+00 1.8839105449131390e+00 -4.7956904712301860e-05  1.2312956777593178e+00 2.6389585220226679e+00 -5.9554114334687930e-05  -1.2305132442949038e+00 2.6390936815319659e+00 1.7633380457017990e-05  -6.1474487126266286e-01 1.7257457859199330e+00 6.3648425960677313e-01  1.0501504542721944e+00 2.2625389615330080e+00 3.4306471824267892e-01  3.7112825935221783e-01 1.4453831362673220e+00 6.8729435543200124e-01  1.5233819854865795e-02 1.6942724500335817e+00 3.0834930066891547e-01  4.1355999446704939e-01 4.2449290152186853e-01 9.2187463728320851e-01  3.1228265565774893e-01 2.0059044223873643e+00 2.2342357549212727e-01  -3.1107002801333616e-01 2.0349241455766585e+00 1.9986847869152843e-01  -9.7206412897257366e-01 6.9483202525329213e-01 3.3553108252049452e-01  -1.0132749892159818e+00 1.3497261662725644e+00 3.0826679158547637e-01  -1.2232079229591121e-01 1.1610149179745990e+00 7.9103701821575667e-01  9.9640667983319076e-01 9.8408601645863281e-01 2.8394267873363666e-01  -7.4659395265462558e-01 1.2000026034469020e+00 7.2607432968879759e-01  8.6205526502459306e-01 2.6456411434138777e-01 5.4788143849146531e-01  1.8732841441374165e-01 2.4178953639112568e+00 -1.9734801091500398e-01  -6.4639773644355436e-01 2.5905523063355109e+00 1.9822335121700940e-01  -3.2749888476614875e-01 1.5224313793479025e+00 6.0208502106509232e-01  9.6361715104408385e-01 1.5917816406653094e+00 4.8602634990848020e-01  -6.8910141434188621e-01 2.3411176475521907e+00 3.6828504464325268e-01  6.7052566340528674e-01 7.9858306960995562e-01 7.8108081766222492e-01  -9.7140213822210020e-01 3.0833023826447320e-01 3.1393840162455411e-01  -6.4470219847363275e-01 5.6921560224608958e-01 7.9657211778862091e-01  -4.0182438665919262e-01 7.2169844541404715e-01 9.1985248830683253e-01  8.4558626304182416e-01 1.1858573099555929e+00 6.2681518341696518e-01  -8.5695838861555707e-01 8.0657178592365186e-01 5.8457160582471679e-01  -7.0318390403366648e-01 2.8934518827629979e-01 7.4108216822647066e-01  -8.8285633162815191e-01 1.8331371407804979e+00 5.4994151674912550e-01  -1.4741870309476604e-01 2.5461753024476791e-01 9.9338471523811323e-01  1.9818844085692122e-01 2.0615179949701659e-01 9.8834126963725288e-01  5.9731600436826748e-01 2.3205615716856515e-01 8.2515514611879692e-01  -4.1323798508296700e-01 1.0340799722425331e+00 8.9521034725842796e-01  8.0716507821012495e-01 2.4193399462153233e+00 3.7163122968628393e-01  7.6947932762463811e-01 2.7602987353902426e+00 1.9088495871324393e-01  4.7664353917864305e-01 2.7744684316143209e+00 -1.2753432106593332e-01  1.6258366680970779e-01 1.5360726440167016e+00 4.7819862738044144e-01  4.8968252352811920e-01 1.9746701831104352e+00 4.3348199312509555e-01  1.0754922417965973e+00 1.6982514557177812e+00 1.9970012913043933e-01  8.8033940593610094e-01 2.0949905207501875e+00 4.8434188979478265e-01  -1.1457000130190049e+00 3.0233327622223745e+00 1.4872798140374935e-01  -1.0920327799355385e+00 2.7417084469010291e+00 2.2744010955249433e-01  1.1424864907550238e+00 2.8131012183313717e+00 1.8384615080251845e-01  9.8344978127183380e-01 2.6287309999875264e-01 2.7046922542753543e-01  1.4237211565792451e-01 8.9434489579858378e-01 9.5382012465649013e-01  -4.6201361826843518e-01 2.5896328850557100e+00 -1.1710405610976872e-02  1.1595048886440646e+00 2.4609385237645562e+00 1.9230200643839260e-01  -1.5188759758400286e-01 6.2325655860277540e-01 9.7408894330479157e-01  -1.1292164320045479e+00 2.3592366912918044e+00 2.3932184905300072e-01  5.1068489748508672e-01 1.6624948559493087e+00 6.3229582002023110e-01  1.1519083453643484e+00 2.0714196189344167e+00 -2.0278618577850375e-05  4.4659692412317997e-01 2.5430962553165268e+00 2.3673661000319615e-04  -8.4477563826544322e-01 1.7234397929296812e-08 5.6446295433639437e-01  -4.9256023603586552e-01 2.1911777469058067e+00 2.9669571269335582e-01  1.2158399422114226e-01 2.1752263384013926e+00 -4.8723890380878085e-02  -7.6738324110612688e-01 2.9427324192383084e+00 9.2125630784411952e-02  -4.7873391062398568e-01 1.9699389032945298e+00 4.2678994325713543e-01  -1.0101549739431963e+00 8.9989354034251190e-01 2.0260962261229651e-01  -9.2335035100146223e-01 1.2454387179373627e+00 5.1727962076522305e-01  -1.6345768817316877e-01 1.8425189453064008e+00 2.3264169819196645e-01  -8.5151132423304632e-01 2.7166500825589823e+00 2.5236277731429174e-01  -1.5969197313544151e-01 1.5850909899049495e+00 4.3659908239848433e-01  -2.8376679972921087e-01 2.4635224806261218e+00 -1.4209036646460158e-01  4.5777387393580654e-01 2.2072532786808443e+00 2.4570155062662127e-01  -6.7609293027108641e-01 1.4307223082256673e+00 7.3700756236977427e-01  8.1523999176792306e-01 6.7152225823644851e-01 6.3426808227572451e-01  -8.5271525056611042e-01 2.3587769665934369e-01 5.6098442168752494e-01  9.9530309954282781e-01 7.3525636813561035e-01 2.5404330560322436e-01  5.4751231261825339e-01 6.1056785563036209e-01 8.5865398096517986e-01  5.6048403651114986e-01 1.3344484861142711e+00 7.8944783993190004e-01  -5.1425167972832142e-01 2.0398192897801021e-01 8.7698276157061839e-01  -2.5201181703822584e-01 2.1877715662655248e+00 2.7336740669773135e-02  -1.0211383885873819e+00 5.6647512554795354e-01 -1.5500622384803370e-05  -2.3717648258795532e-01 1.3310578671401783e+00 6.8983870096728162e-01  2.5661551334995952e-01 5.9279082687106388e-01 9.6007652532925947e-01  1.0321192284035494e+00 1.4916038662547764e+00 2.8981413649373872e-01  1.0458350898888056e+00 1.3212376253942235e+00 -1.4908166630734803e-05  -8.6807794177821207e-01 2.2228741465856650e+00 4.4804470685107478e-01  9.0245676545389941e-01 1.3923731490150786e+00 5.6511137379036780e-01  -9.9647442548895326e-01 -6.7428146159492072e-07 1.9820649289003406e-01  4.0171422557409819e-01 1.0257270061599000e+00 8.9868744599207828e-01  1.6556810610572503e-01 1.3119929888983151e+00 6.6754782069441687e-01  -1.0955946675204258e+00 1.9208808389410237e+00 2.4247814225066280e-01  2.0434209597815201e-01 1.8151038270244202e+00 2.7929427989782646e-01  1.0211515222065666e+00 5.6646062512003170e-01 -2.7390698111599379e-05  1.1134216839736371e+00 2.0622881882914523e+00 2.3644426357319587e-01  -8.4733167433137024e-01 1.0307979960495912e+00 6.1356888586395875e-01  -1.0156288035355412e+00 1.1412674276922476e+00 2.2721582176603236e-01  -1.0184503808697791e+00 1.8888760634666918e-01 -3.3256498590701747e-05  9.4201221745430841e-01 1.0936094927386528e+00 4.5972821830964816e-01  4.0982863185311447e-01 2.1173894998132328e-01 9.2726276858284329e-01  -1.1511621576587867e+00 2.0715560148430674e+00 -3.0945157286375624e-05  8.5250573646226202e-01 4.7316076131448492e-01 5.7281121803210711e-01  1.0024567940564393e+00 4.5661948514953749e-01 1.9621992433909297e-01  9.2591227136396603e-01 7.2529739980522423e-01 4.5706236498722608e-01  3.5873649773347438e-01 1.2670265472820013e+00 7.9852710705545082e-01  9.0114046258748637e-01 1.7983080219263701e+00 5.4344015874836760e-01  -1.7895947471009682e-03 1.0296690444348848e+00 8.9527035082914452e-01  1.0210377619022108e+00 1.1757248626810866e+00 2.0702772247946760e-01  -1.0040329850240393e+00 4.7223092589190835e-01 1.8827250380249422e-01  5.9612120914287643e-02 6.9220331992309569e-01 9.7743504063791087e-01  -9.4946516171702244e-01 4.9612708643375902e-01 3.8594381447775528e-01  -6.0182104517679347e-01 1.0859661556984339e+00 8.2401908483513842e-01  -9.2535351628089169e-01 2.0262339533035338e+00 4.8231846832283565e-01  -1.2478072025661124e+00 2.8298266633114055e+00 1.0409488644113864e-04  7.7026726607254070e-01 1.0119960533365036e+00 7.0113639072353395e-01  6.0606036155971132e-01 2.6927270993688159e+00 9.2035135465172460e-02  -4.9283967633935777e-01 1.4992509764595201e+00 7.1297345826735092e-01  6.6614186813268050e-01 2.0307157188653879e+00 5.0973686484844805e-01  7.0766797982833596e-01 1.6645097095295547e+00 6.6079211720870745e-01  -1.8688849208973105e-01 2.6051346689695061e+00 -3.4626236299419810e-01  -6.0993052124125730e-03 2.4088201903243465e+00 -2.6396015234525144e-01  -1.1433242409362145e+00 2.1687098146419066e+00 1.7642277603885778e-01  9.9647583004288109e-01 -6.5918400171124707e-07 1.9820943094402849e-01  7.6710558809060059e-01 2.9422444611248415e+00 9.0480584313509624e-02  1.9820785443367916e-01 1.5104355001686521e-06 9.9649223199821169e-01  -1.9821646992249595e-01 3.8085081798279891e-07 9.9648265758561294e-01  5.6445632147136271e-01 1.7714515422814932e-07 8.4477750112180450e-01  1.8568075665973058e-01 2.6048835685393472e+00 -3.4688395422047419e-01  8.4477860052428733e-01 -1.9523816118289807e-07 5.6446236306594955e-01  1.1454628258810209e+00 3.0234025111228910e+00 1.4809726831891679e-01  -4.7726177782167745e-01 2.7749054784979883e+00 -1.2637469600404719e-01  -5.6446403314921545e-01 -1.8707907263920084e-07 8.4477173605942102e-01  -6.9799398773483581e-02 2.1239065053861910e+00 -2.5366421108474754e-02  9.5539372682881374e-01 2.8038829362440518e+00 2.3376386990521925e-01  4.8089517232365731e-01 2.4084862902818913e+00 1.3607918246547313e-01  6.2801798079070470e-01 2.3681497191887733e+00 3.1344884348940594e-01  7.8597915744126856e-01 2.5925317500289755e+00 2.8614288035800284e-01  3.4193634456417149e-01 1.5905576929360674e+00 5.6352541786325538e-01  -7.0183103492198262e-01 2.7664575444518138e+00 1.3938358261125416e-01  -3.3150673372459660e-01 1.8883039664554338e-01 9.5631400394662491e-01  -1.1681917297627320e+00 2.5551239021548846e+00 1.8032002985099940e-01  -9.4767320434617708e-01 1.6434208316566059e+00 5.1073014319025745e-01  -1.0515484430021593e+00 1.5324353074642618e+00 2.1173482195486884e-01  -1.0897875437425639e+00 1.6968330786296688e+00 -3.1750880270951155e-05  -7.9526155621517258e-01 1.6497412951094044e+00 6.3760166671177887e-01  -5.6987936791386817e-01 3.9099065862622107e-01 8.4529631043475528e-01  1.2487189811694586e+00 2.8296691675552115e+00 -5.2608100239309419e-06  -1.0283361762299683e+00 9.4399526100167441e-01 -1.7219420941272841e-05  1.0184394567076460e+00 1.8888383696843367e-01 -2.9238853148293155e-05  1.0902556569149187e+00 1.6967409329717329e+00 -1.7131588955025180e-05  1.0283939069709456e+00 9.4397088967724507e-01 -4.8505150160260098e-05  -1.0456769809848403e+00 1.3212765539913447e+00 -3.1536376466262668e-05  1.2087578553492901e+00 2.4488746503210503e+00 -2.6819751046066611e-05  -1.2080466169441255e+00 2.4490036579503451e+00 2.1791666315418980e-05  7.4204579591225439e-01 2.8680285059399291e-01 7.0270075831588608e-01  -1.0149269292427261e+00 1.8725573314408701e+00 4.1503733039786295e-01  -7.8755684748436228e-01 6.3467182179236881e-01 6.6610987993311288e-01  -3.1614663191933684e-01 1.1932695612646309e+00 8.3161592623652925e-01  -7.0146359875020425e-01 1.8898029687719085e+00 5.7887754198671948e-01  -4.2786958198182451e-01 1.6936000384884409e+00 5.6189400430223579e-01  -5.4746678082937394e-01 2.3636787325778696e+00 2.4383242191394766e-01  5.3452779813251894e-01 8.9879729027068789e-01 8.6415817107841975e-01  1.8111708959591771e-01 2.0455906528478369e+00 8.3639495275576264e-02  4.9132757302590574e-01 1.8173755785452292e+00 5.3192582264985855e-01  1.0292866285888165e+00 2.4460558136109722e+00 3.2534545211095878e-01  1.1485215896984182e+00 2.2386920802620147e+00 1.8478745892377943e-01  1.1033820053145351e+00 1.8821408329922986e+00 1.8943240784613324e-01  -2.2768565179206665e-01 1.0466369679251037e+00 9.0128247742606316e-01  7.1730264367453767e-01 1.2498629065276934e+00 7.4488618814652785e-01  5.4321610179393698e-01 1.5051888297738409e+00 7.2173182091156252e-01  -2.0552376979992085e-01 4.3849673869228445e-01 9.7562015902219590e-01  -1.0033895623467568e+00 1.5134441000604735e+00 3.9199617520006902e-01  -1.0097742935113141e+00 2.3071267165221130e+00 3.6822657834817396e-01  -1.0104856118822958e+00 6.4915793050759607e-01 1.6236746455707879e-01  4.1947871724764475e-02 1.8361256681752882e+00 1.9725164017791288e-01  5.7463560541045522e-01 4.3551698741455269e-01 8.4262260588772242e-01  2.3923641727960873e-01 4.1369178800942513e-01 9.7081474687289959e-01  1.1364648286427452e+00 2.6369363384214624e+00 2.1364068762373781e-01  8.1245797487591975e-01 2.2542509378114755e+00 4.3981593012783210e-01  -5.1625853361074681e-01 2.4905159494974596e+00 1.2472135866902073e-01  -5.3360496354375542e-01 1.8493889079204102e+00 5.4186986068683562e-01  1.0263710086576272e+00 2.0688760803499049e+00 3.9037107112751002e-01  -4.9052901334124084e-03 1.2496227057857769e+00 6.8376845333994696e-01  3.3286175720251587e-01 2.1531587207109029e+00 1.3518041303056438e-01  3.4931367869864788e-01 1.8897751241987097e+00 3.4981982025795016e-01  1.8656465895760217e-02 1.8071726500315322e-01 1.0069442949757099e+00  -7.8465281400942344e-01 2.5644796233779008e+00 3.0058522366671875e-01  1.7507150849301792e-01 1.6733156977762473e+00 3.7390868391147170e-01  3.2324276874406666e-01 2.4320382346426173e+00 -7.6533512391965569e-02  -3.1664833256456171e-01 5.7121671407461094e-01 9.4793439784204925e-01  -4.8827791897939810e-01 5.6748066039282852e-01 8.8862492952640271e-01  6.0915586070473073e-02 2.2901107786867492e+00 -1.6020200027063025e-01  -1.7708802997513556e-01 2.0400925264679146e+00 8.5288919226121834e-02  -9.0262833842823609e-01 6.3499384179809781e-01 4.9743843314627989e-01  -9.6755447015029727e-01 8.6145501154721604e-01 3.6582485211196780e-01  -3.6932779236754576e-01 2.1873332203217704e+00 1.5219126336356076e-01  -3.0970433093486710e-01 1.8994367565494483e+00 3.0161591907514457e-01  -1.0093152853357716e+00 2.8333216148917212e-01 1.4524236455790171e-01  7.8742372826305806e-01 1.3576583073330420e-01 6.4539226249140624e-01  -6.4318678321414302e-01 1.3891157994352341e-01 7.8862137924849696e-01  -1.0882784347470198e+00 1.7589503649820590e+00 1.6969154764968558e-01  1.0372962417900287e+00 1.3506518938103125e+00 1.7928578102316778e-01  -5.0098113343084760e-01 8.7448946908171310e-01 8.7993461067175360e-01  -5.9557753631436283e-01 7.3446881786361584e-01 8.3139559768700744e-01  7.3236737978180219e-03 1.5630946176377751e+00 4.1461943889964331e-01  -9.7407558789401449e-01 1.3933588833800684e-01 2.9535289944904308e-01  -5.7804887038539676e-01 2.6751366781975712e+00 7.3568632298726289e-02  1.0181985361131451e+00 8.4979985495948129e-01 1.3663546256094780e-01  -1.7451516551276175e-01 1.7167864208086792e+00 3.3861945751860378e-01  6.8451923823769456e-01 6.3496470594334375e-01 7.6667845285374181e-01  -9.1226774640371222e-01 3.5538761590654100e-01 4.6298245404736604e-01  2.2071717683175843e-01 2.3022617260983886e+00 -8.5106605928328624e-02  8.4951500143341063e-01 1.5829324273842651e+00 6.1507611480913993e-01  4.9571730216123350e-01 1.1923461717765098e+00 8.4197785310362927e-01  -3.0850433361294555e-01 2.3392403929897356e+00 -2.7948787859813237e-02  8.0946978274876202e-01 1.9589319662053581e+00 5.4568245612310029e-01  1.0027379240538259e+00 1.7403267770123714e+00 4.3051707185105043e-01  -7.4475802451365669e-01 4.5631425184087404e-01 7.0603177774087156e-01  2.1417507578407075e-01 7.4964370612207387e-01 9.6117966572793900e-01  -5.6880194110569604e-01 2.1087633064093891e+00 4.1847608761524108e-01  -6.1023674686145202e-01 1.2471514767641860e+00 8.0009862319002967e-01  -7.3378927552683371e-01 1.0348496413636041e+00 7.3574808091228205e-01  -7.9973930804028204e-01 1.3468681220879415e+00 6.7699428527991556e-01  9.4618990506434741e-01 9.3700371939367300e-01 4.3073024437045948e-01  -9.7873331175256617e-01 1.1791455520060237e+00 3.8065485231816931e-01  8.9771965708222723e-01 1.2506024087266415e-01 4.7953285844773119e-01  9.1730909043443887e-01 3.8386042901378609e-01 4.5417151057204086e-01  -6.3137986743576080e-01 1.5793681068090808e+00 6.9833667051263792e-01  9.8020437968378926e-01 1.4435702320778969e+00 4.3409274131480918e-01  -8.6523751322982423e-01 2