<?xml version="1.0"?>
<VTKFile type="UnstructuredGrid"  version="0.1"  >
<UnstructuredGrid>
<Piece  NumberOfPoints="758" NumberOfCells="1386">
<Points>
<DataArray  type="Float64"  NumberOfComponents="3"  format="ascii">-1.570796326794897 3.048 0  -1.570796326794897 0 0  1.570796326794897 0 0  1.570796326794897 3.048 0  0 0 0  0 3.048 0  -1.570796326794897 1.524 0  1.570796326794897 1.524 0  -0.04609926118424437 1.524 0  0.7853981633974483 0 0  0.7623485328053261 2.262242601661362 0  -0.7853981633974483 0 0  -0.7853981633974483 3.048 0  0.392699081698724 0.7745759241961347 0  -1.570796326794897 0.762 0  -0.8084477939895706 2.0955 0  -0.68277245543452 0.8915343570675713 0  0.7853981633974483 3.048 0  0.778743707341909 1.468410948960538 0  2.780093748954961e-16 2.285302774973185 0  -1.570796326794897 2.286 0  1.570796326794897 0.762 0  1.570796326794897 2.286 0  -0.9375370967763674 1.47348297960658 0  0.9831575747762593 0.9003629142671278 0  -0.3926990816987241 0.4064697549061488 0  1.177419588818055 1.905 0  0.3692901340097942 1.880893989147954 0  -0.4920225169641509 2.564371687128368 0  0.3926990816987241 3.048 0  1.178097245096172 0 0  1.155705348811136 2.643920532523289 0  -1.178097245096172 3.048 0  -1.178097245096172 0 0  -0.1391296372266528 0.8873724190154949 0  -1.10527745318919 2.528282743051346 0  -0.9817477042468103 0.4742759268549471 0  -0.3416666987802651 1.923944646262223 0  -1.570796326794897 1.905 0  -1.156555306160469 1.030861936336814 0  0.7648449098493205 0.4764142032227 0  0.3926990816987241 0 0  -0.4820376416180818 1.326151321396512 0  0.06374421723344185 0.4545169930886408 0  0.1972735722393064 1.163324878565267 0  0.3900417218314142 2.566922767651637 0  1.570796326794897 0.381 0  1.188877612935585 1.295195418509834 0  1.179914028402171 0.5308585702661928 0  0.7660075594126428 1.865233039449035 0  0.6330293131838399 1.095171663968746 0  -1.201232463242587 2.144287146570887 0  -0.3926990816987241 0 0  -0.3926990816987241 3.048 0  1.178097245096172 3.048 0  0.7684409382397209 2.649499271873753 0  -1.236954997304436 1.7145 0  -0.1088573452899617 2.666651387486592 0  -1.570796326794897 1.143 0  -1.570796326794897 0.381 0  1.570796326794897 1.143 0  1.570796326794897 1.905 0  1.570796326794897 2.667 0  -1.570796326794897 2.667 0  -0.6730839067294777 1.743003792473746 0  1.199831389396789 2.275437921225198 0  0.3936837537618041 1.495643752599615 0  0.01539369169800942 1.928544709491661 0  0.4156551272669651 0.4219033286010089 0  0.3401546043708642 2.225103550856524 0  -0.3379897306391274 2.262671266279809 0  -1.23624174049596 0.7000907110925838 0  -1.265224057170889 1.360131453617764 0  -0.1224339018241312 1.210043725539656 0  1.289286200625578 0.9918698881707442 0  -0.7751142346211329 1.197848666814478 0  1.003546186550495 0.2660297686099683 0  0.1963495408493621 2.808538634159524 0  -0.8079023568959116 2.703551618159924 0  -0.3480226984353056 1.610059855391589 0  1.075147893506229 1.598068412087719 0  -0.8290627893979112 2.399544545867518 0  0.6965048925255637 0.7972100472372819 0  -1.257765094876752 0.3107645483825858 0  -0.6724835324263325 0.5684215760013651 0  -0.3995059642389676 0.7173610149075536 0  0.9136951972244611 1.187564504803626 0  -0.964259350608907 0.8095514380783081 0  -0.7565990314517038 0.2897049735129544 0  -0.9603859887840651 1.834914433810327 0  -0.1457055965762301 0.2521630699436873 0  0.1963495408493621 0.2041911848053476 0  0.6241974196550791 0.231695999252114 0  -0.4098815011312292 1.029160072548571 0  0.9592800715482012 2.452820690856482 0  0.9648684169153161 2.840751931000357 0  0.5890486225480862 3.048 0  0.164631037784102 1.698913854044779 0  0.5664480837073581 2.070920238540226 0  1.374107957806476 1.7145 0  0.9861079629544779 2.102471438422718 0  -1.374446785945534 3.048 0  -1.288827800789186 2.762781313597598 0  1.353232957571468 2.835634774483438 0  1.302158670506274 0.2650078124691045 0  0.1394669809465775 0.8907702620243092 0  -0.5631487221059602 2.830992231257464 0  1.372837635547072 2.483038902756259 0  -0.1493395228831287 0.618617259260858 0  -1.32327048447753 2.378769394323546 0  0.56080204725298 1.699622905297025 0  1.570796326794897 2.0955 0  0.5403456747786348 2.786446773498672 0  -0.9817477042468103 0 0  -0.5847039960246873 2.326882432521036 0  0.1225428891326576 2.526494255738436 0  -0.9817477042468103 3.048 0  -0.5522901559753841 2.071668786267058 0  -1.370864794258017 0.9075071715671403 0  -1.043891045637083 1.250611220450313 0  -0.1652643923634778 2.09141301924679 0  -1.044446740946883 2.764982067459552 0  -0.1610370079820225 1.763280243096074 0  -0.3136912237752232 2.810498886211121 0  0.5400974078002052 2.370472734822523 0  -0.7009161718414544 1.427243880175582 0  0.902907438200502 0.6735032943420574 0  -0.9879196222361604 0.2371379634274736 0  1.319268546233604 0.7412771512308228 0  0.5578373583610097 0.608241627784878 0  0.5756483102040615 1.332636919938113 0  -0.5281701577409 0.2032348774530744 0  -0.266729509930448 2.489223923247521 0  -1.570796326794897 0.5715 0  -0.2430656531629531 1.405631921096758 0  0.253622337931223 0.5884397663452474 0  1.284044721043478 1.50372037617638 0  1.570796326794897 1.3335 0  -0.9904333867980613 2.235882060371517 0  0.9871146764618406 1.395690276854986 0  -1.374446785945534 0 0  0.3981951765262902 1.020833864419675 0  0.1670583512016766 1.405384478716078 0  -1.330327693484763 1.938638984813805 0  0.2106653067452682 2.040805097078886 0  1.570796326794897 0.5715 0  1.334822181490566 2.081373939821734 0  -0.9303227889097604 1.033236710715967 0  -1.34639228476592 1.150776798768373 0  -1.570796326794897 0.1905 0  1.106697207481837 1.099709897393925 0  0.4137866939027022 0.2104288000383385 0  -1.570796326794897 2.0955 0  0.9761377489246634 0.4754251272674608 0  1.377108465632662 0.4605024587280874 0  1.108114944719677 0.7297638044096917 0  0.3695908229138113 1.285681859811955 0  0.9799112840676307 1.800306505551499 0  -0.001696842075803034 1.042028929293442 0  1.366537356420357 1.185723700290463 0  -1.385029840108318 0.47625 0  0.05842649915411911 0.6874537157920781 0  -1.183268988745763 0.4997334438341218 0  -0.6073502281622543 1.081347079085406 0  -1.026941765261019 2.031536576622642 0  -1.570796326794897 2.8575 0  0.8159726599830506 1.011928543199529 0  0.7652782693277244 2.849245002237192 0  -0.5252326280373281 1.520125074885265 0  0.7648326174724897 2.063743853392348 0  0.757099741434616 1.666331708950521 0  -0.1963495408493621 3.048 0  -0.005410422648647092 2.843333256403111 0  -1.395368347654653 2.19075 0  1.374446785945534 0 0  0.9817477042468103 3.048 0  0.1963495408493621 0 0  -0.1963495408493621 0 0  0.5890486225480862 0 0  0.1963495408493621 3.048 0  0.9817477042468103 0 0  1.374446785945534 3.048 0  -0.5890486225480862 3.048 0  -0.5890486225480862 0 0  -0.06865319188571758 2.471928549109083 0  1.159049337209348 2.838090892449816 0  0.5817075150535711 2.596909954318943 0  0.7656515661107315 2.455866896253367 0  0.9620790410056582 2.647119292933887 0  0.3676829480103987 1.68739481709134 0  -0.8886101495223063 2.878912500124773 0  -0.3317793704126089 0.1873756770788371 0  -1.383208664444332 2.577695923010364 0  -1.043597917648523 1.648216005744782 0  -1.362178343413552 1.546177620526679 0  -1.570796326794897 1.7145 0  -0.8462722504471433 1.648434957877788 0  -0.588076822054871 0.3899352838051667 0  1.570796326794897 2.8575 0  -1.570796326794897 0.9525 0  1.570796326794897 0.1905 0  1.570796326794897 1.7145 0  1.570796326794897 0.9525 0  -1.570796326794897 1.3335 0  1.570796326794897 2.4765 0  -1.570796326794897 2.4765 0  0.8103777117362174 0.287468585434799 0  -1.145334531235929 1.881885620422454 0  -0.8620560674467429 0.6361265362229395 0  -0.321688879263093 1.207848147265888 0  -0.7798551871678058 1.904240998338365 0  -0.4724954359209014 1.769587110195458 0  -0.667402576232105 2.495985359319255 0  0.5365063314111709 0.8945566719544227 0  0.1855702280441107 2.342745654422604 0  0.55510120733165 1.88540118775351 0  1.188295809121239 2.460939894898248 0  1.38587897409014 2.260870763688798 0  1.383978812419919 1.901097375082534 0  -0.2265735189171196 1.049795314962436 0  0.7387890113368257 1.246392780742437 0  0.5763234466275948 1.516457524623135 0  -0.203279258075353 0.4348372558382012 0  -1.179202350299698 1.523245956950107 0  -1.151844216720993 2.318990544544152 0  -1.410806081599612 0.6547540757597369 0  0.04190096621848406 2.108399609871347 0  0.5925649981629265 0.4343292987553075 0  0.2371113691258682 0.4102816185532077 0  1.334103818253725 2.657728219912091 0  0.9405077369493808 2.275181409651143 0  -0.633962040105568 2.669303984283053 0  -0.6045614816381242 1.904349918307267 0  1.159697673803787 2.079238591118184 0  -0.004643801590645341 1.347662554528907 0  0.3691400131247499 2.395423267764724 0  0.3855005143298051 2.055603978165229 0  0.01839821075864462 0.1788084577298442 0  -0.9568120219060965 2.61629404172056 0  0.1783135820912846 1.871116340262054 0  0.3649950158263953 2.745288921627024 0  -0.3142054567155264 0.5671999812317062 0  -0.4933549623779417 0.564740705097546 0  0.06092775470575962 2.685867440722903 0  -0.1801827362748675 2.337517890002858 0  -1.063355415037434 0.6386189748554 0  -1.205242865599393 0.8676070232612285 0  -0.4176020549597784 2.412196127179313 0  -0.3347051678178828 2.093252344225509 0  -1.427772711006951 0.2857500000000001 0  0.8835729338221293 0.1362887052191026 0  -0.6831011505337878 0.1389086130988801 0  -1.403875662049666 1.77648180985222 0  1.394165436236593 1.362588987767805 0  -0.5007942298153729 0.8700626692351643 0  -0.6093220848169366 0.7321530406295067 0  0.007534593095922887 1.760126887057542 0  -1.276272015520854 0.140425968067263 0  -0.7270478511000733 2.847016806985676 0  1.436331331726002 0.85725 0  -0.1770320080670663 1.927167796173981 0  0.7200726153501196 0.6345534912379586 0  -1.099983122078282 0.3577316115390257 0  0.2324759135153202 2.648405702327079 0  0.9054371869972004 1.582409569434113 0  0.5000672234640285 1.188708149930449 0  -0.340793734207542
[...]
<PointData  Vectors="phi"> 
<DataArray  type="Float64"  Name="phi"  NumberOfComponents="3" format="ascii">-1.2402539954954017e+00 3.0266986855283062e+00 4.2529286610085626e-04  -1.0160113609447601e+00 9.6462677664019675e-08 -9.3870180944839784e-06  1.0160114399362075e+00 6.9810998897895140e-08 -1.1206739115173341e-05  1.2404611378574131e+00 3.0266472342368758e+00 3.4609834467813578e-04  -6.0045479065067228e-06 6.1860077469289513e-07 1.0160208645410436e+00  -8.8562949673434547e-04 2.5168144987452878e+00 -5.0141883618298322e-01  -1.0712074958011741e+00 1.5097322348510778e+00 -1.6847385508684626e-05  1.0716414992796874e+00 1.5096505944953473e+00 -2.5693773722768576e-05  -4.6971791789270481e-02 1.3434295484965495e+00 4.7590499456219926e-01  7.1842692848414946e-01 -2.0981615270530652e-07 7.1841655383087943e-01  6.1951226838776197e-01 2.1821461535576367e+00 3.4837999501806893e-01  -7.1842400570933451e-01 -3.3451355548348196e-08 7.1841843112305648e-01  -6.0137739831574810e-01 2.8363809072717032e+00 -8.5805510872550755e-02  3.9720257890310140e-01 7.7880193577824053e-01 9.2096064942797984e-01  -1.0234768068037363e+00 7.5569063960235594e-01 -2.1626763678057718e-05  -6.7911865864372423e-01 2.0532107487928108e+00 4.4884694650892148e-01  -6.6458183544426663e-01 8.9414666261400033e-01 7.9071824956607850e-01  6.0085518444459463e-01 2.8357199217101825e+00 -8.7598294856541484e-02  7.3037025058424665e-01 1.4695767776109114e+00 6.7529809819374298e-01  -6.2951914037111224e-04 1.9372943557798328e+00 -3.0251384989563404e-03  -1.1840259113288121e+00 2.2626874450699712e+00 2.7123768338848604e-05  1.0235095943986108e+00 7.5566921406366483e-01 -3.0627925976789267e-05  1.1846788502703067e+00 2.2625470955676703e+00 -6.6068957711836246e-05  -8.6835595791989906e-01 1.4736422615938198e+00 5.9434806165466025e-01  8.7257842840616628e-01 8.9754182831174312e-01 5.6949970587875143e-01  -3.9221528251812943e-01 4.0889454323346125e-01 9.3150564609136854e-01  1.0273800397621491e+00 1.8957207794054225e+00 3.8046779075074511e-01  3.3445459224588781e-01 1.7114155637853039e+00 3.6381111152562084e-01  -4.1223955894727293e-01 2.3118751697630828e+00 2.3747983855143279e-02  3.3386992020974809e-01 2.6539852170007165e+00 -3.2531638694853593e-01  9.3865751809957376e-01 -4.2972498583648918e-07 3.8880531451910189e-01  9.4528662308203271e-01 2.6162555409722481e+00 2.6259927034195651e-01  -9.1453114747396225e-01 2.9886910142633569e+00 1.1071396044637066e-01  -9.3865727038498792e-01 -1.7507367273920750e-07 3.8881449353969350e-01  -1.3979872937840601e-01 8.7815612179773339e-01 9.1014114240017763e-01  -9.1168959326056787e-01 2.5022708691168902e+00 3.0488979550653866e-01  -8.5520323224267381e-01 4.7228036119093825e-01 5.6785030402943670e-01  -3.1339616530238340e-01 1.7343981115255431e+00 3.2390469012444045e-01  -1.1287967243525074e+00 1.8849635472014112e+00 -2.5371829559665706e-05  -9.5888288456753179e-01 1.0249122705422877e+00 4.1302685608579404e-01  7.1431554944250697e-01 4.7624186079989145e-01 7.3656582269898330e-01  3.8881379756198337e-01 1.0441190828867313e-06 9.3866793426112960e-01  -4.5250197605144560e-01 1.3011669032518351e+00 7.3362521146030302e-01  6.4875524497934003e-02 4.5777825093524549e-01 9.9056578404174278e-01  1.9406568019171747e-01 1.0966546679986973e+00 7.4218782816723594e-01  3.4121385815789168e-01 2.2670929508575641e+00 -3.9252857493138935e-02  1.0197958978290977e+00 3.7789886971893394e-01 -1.9558552005919972e-05  9.9025228848054658e-01 1.2872408672846758e+00 3.8299251110871069e-01  9.4854663140218154e-01 5.2738602891034825e-01 3.8909505775257930e-01  6.6728661429645231e-01 1.8388340905888780e+00 5.4190746438070525e-01  6.2060549668868192e-01 1.0995507713896688e+00 8.0104939145471099e-01  -1.0394358006839246e+00 2.1333394133636010e+00 3.4391774182165163e-01  -3.8880196830524744e-01 -3.3063223153225669e-07 9.3865741526919533e-01  -3.3514343692282628e-01 2.6544704610315764e+00 -3.2419929160292948e-01  9.1408870786448182e-01 2.9881567202214074e+00 1.0884397544761600e-01  5.9964001523017874e-01 2.5055978996233916e+00 1.3611340253322846e-01  -1.0457909083769834e+00 1.7029487729991544e+00 3.3404016510038853e-01  -1.0931559667998410e-01 2.2472406653996604e+00 -2.2622733808051523e-01  -1.0348691047225524e+00 1.1333483535654263e+00 -2.3850889669525527e-05  -1.0198038376899834e+00 3.7790875541884250e-01 -2.4551018619365668e-05  1.0349832753206751e+00 1.1333111521879808e+00 -1.2563666286670430e-05  1.1294374358489285e+00 1.8848286675246828e+00 -4.8413035235459697e-05  1.2230959816854008e+00 2.6439624190636519e+00 -6.9439108112587456e-05  -1.2222375390362408e+00 2.6440997155669455e+00 2.8272763288993456e-05  -5.9289521867773420e-01 1.7093103594501662e+00 5.7921251166364696e-01  1.0307246959126906e+00 2.2633993381181567e+00 3.2952105204235532e-01  3.6303284221356574e-01 1.4143956436509562e+00 6.0714458827635431e-01  1.5088106310475533e-02 1.6568811961192218e+00 2.1844095303976435e-01  4.1423020933930066e-01 4.2431280429625601e-01 9.2307328242583275e-01  3.0911492379039002e-01 1.9723691825333767e+00 1.3898521526411134e-01  -3.0820087865301710e-01 2.0015490841171069e+00 1.1568101083075238e-01  -9.7162028532060585e-01 6.9526149688196637e-01 3.3542294610746259e-01  -1.0178431448499776e+00 1.3503335211755378e+00 3.0849585804631730e-01  -1.2273664604053343e-01 1.1153580184419833e+00 6.9285274126778640e-01  9.9646219228838273e-01 9.8465749827131577e-01 2.8393493336644621e-01  -7.4409884124591341e-01 1.2009524003573038e+00 7.2079894098615449e-01  8.6190771931949206e-01 2.6472573313028963e-01 5.4779738542369161e-01  1.8597290707018960e-01 2.3835875626485721e+00 -2.8332797683162159e-01  -6.2729096811540386e-01 2.5668716620627512e+00 1.2812450317533852e-01  -3.2253911576949501e-01 1.4888062456209834e+00 5.1834831833922201e-01  9.6184596791417554e-01 1.5932820274553392e+00 4.8203224280937124e-01  -6.6467156994972754e-01 2.3217914439013470e+00 3.0560129489892401e-01  6.7245882456810924e-01 7.9900433563258133e-01 7.8299606950935086e-01  -9.7116888407084223e-01 3.0852276886957486e-01 3.1387578457251564e-01  -6.4525738588013382e-01 5.6942539103842982e-01 7.9732763223536529e-01  -4.0360213032693409e-01 7.2138439277522959e-01 9.2280491612440052e-01  8.4760627250781495e-01 1.1868997771226850e+00 6.2651818429570483e-01  -8.5740125381954768e-01 8.0709521840178000e-01 5.8487891614066634e-01  -7.0316782997641425e-01 2.8946139313169533e-01 7.4104414662954798e-01  -8.6313997481793225e-01 1.8315894094799321e+00 5.2804893225351490e-01  -1.4757579793839659e-01 2.5430717889989840e-01 9.9377069783691718e-01  1.9834591188563414e-01 2.0592887059267670e-01 9.8861591692130013e-01  5.9744194306274367e-01 2.3208252049550285e-01 8.2522964189681902e-01  -4.0476198368821759e-01 1.0273070346613233e+00 8.6125332460804394e-01  7.7741003323402780e-01 2.4059414258216347e+00 3.2006461483053461e-01  7.4439819557981601e-01 2.7408322470418836e+00 1.2766256979083276e-01  4.6828945686419277e-01 2.7445526759977046e+00 -2.0696505751234415e-01  1.6197136060342826e-01 1.4984367470980424e+00 3.8846039303027585e-01  4.7659934209464200e-01 1.9471513655082235e+00 3.5783644511622009e-01  1.0830956884843415e+00 1.6989307673718861e+00 1.9950522402270124e-01  8.5338032338343117e-01 2.0899340260987729e+00 4.5204458902364586e-01  -1.1105153593703803e+00 3.0242831592815786e+00 1.3228789270401456e-01  -1.0616505511653997e+00 2.7413417701634724e+00 2.0835585580050855e-01  1.1136465549713688e+00 2.8147922624283299e+00 1.7081276454258207e-01  9.8323385167022881e-01 2.6303410144763528e-01 2.7042102015037345e-01  1.3986938127090895e-01 8.8100790590108624e-01 9.0819131922323537e-01  -4.5327973020476625e-01 2.5600612580266588e+00 -9.0638121140764388e-02  1.1469802925636869e+00 2.4642738243848221e+00 1.8820979112945380e-01  -1.5264472340752225e-01 6.2210145968356756e-01 9.7701494361720342e-01  -1.1166549910006485e+00 2.3619554822369313e+00 2.3374422253260205e-01  4.9437300361422210e-01 1.6390603827384185e+00 5.6305062320879717e-01  1.1585656944328502e+00 2.0732402070955462e+00 -2.0648965415405607e-05  4.3809940748184639e-01 2.5131415190832276e+00 -7.9349772687776238e-02  -8.4477558993233226e-01 3.6030184881684170e-08 5.6446293635073874e-01  -4.8068104176170778e-01 2.1630580497251324e+00 2.2008751838862389e-01  1.2119149242738778e-01 2.1397376590889583e+00 -1.3619411440733467e-01  -7.4539239520016687e-01 2.9210854537643876e+00 2.5233527420005605e-02  -4.6656424792721801e-01 1.9420122106933286e+00 3.5065355888173394e-01  -1.0096381562126406e+00 9.0042496720241472e-01 2.0254273728983010e-01  -9.2663173610893190e-01 1.2463459512337136e+00 5.1757963160578146e-01  -1.6320991551020908e-01 1.8064980222461848e+00 1.4467387739057305e-01  -8.2131499718771805e-01 2.7024694706724404e+00 1.9924660321836010e-01  -1.5937452029636212e-01 1.5477819468752734e+00 3.4722495247749374e-01  -2.8074062057248161e-01 2.4308360497998041e+00 -2.2569207151122961e-01  4.4808293807622046e-01 2.1776990001699419e+00 1.6688840957747891e-01  -6.5876354514575308e-01 1.4259378334490997e+00 7.0553052292933227e-01  8.1523385506000245e-01 6.7194970510001995e-01 6.3436398635280355e-01  -8.5259537939802621e-01 2.3601909231931109e-01 5.6090997217637317e-01  9.9488153100520171e-01 7.3569633392159461e-01 2.5396869182724169e-01  5.4881175253140835e-01 6.1064468587994469e-01 8.6060599676013017e-01  5.4345998889150127e-01 1.3241817158364961e+00 7.4433628544362651e-01  -5.1443419221852227e-01 2.0395065418039038e-01 8.7713250160915035e-01  -2.5048065124682178e-01 2.1538682254469781e+00 -5.7852775217993063e-02  -1.0210068433708810e+00 5.6680812370153921e-01 -1.5435872331751664e-05  -2.3520868282391061e-01 1.2931227859435783e+00 6.0067395986282912e-01  2.5781226772266175e-01 5.9209925872037006e-01 9.6350250950176564e-01  1.0381962653782169e+00 1.4922220489829203e+00 2.8984072050430565e-01  1.0491781964522184e+00 1.3217885290973497e+00 -1.5149768405803378e-05  -8.3888518009437762e-01 2.2155755160086170e+00 4.1022258291331987e-01  9.0244468666493749e-01 1.3937258673479793e+00 5.6249974285979276e-01  -9.9647471094777396e-01 -6.4823638734707912e-07 1.9820652833768002e-01  3.9336492295988917e-01 1.0186818549944709e+00 8.6403234657548522e-01  1.6486167831364343e-01 1.2719874662803337e+00 5.7548406976361777e-01  -1.0984444720240736e+00 1.9225123263116637e+00 2.4118675721553828e-01  2.0340544181765099e-01 1.7793067791696595e+00 1.9171279402684005e-01  1.0210173103573557e+00 5.6679143135509003e-01 -2.7390967027285593e-05  1.1126380336869810e+00 2.0644600861688889e+00 2.3438548205582735e-01  -8.4978277286255688e-01 1.0315240158828218e+00 6.1454522397444056e-01  -1.0166641374154175e+00 1.1418867009145131e+00 2.2725145615968975e-01  -1.0182560308280715e+00 1.8899828361130974e-01 -3.3298181542088185e-05  9.4430650160682561e-01 1.0942644685219172e+00 4.6025514493877723e-01  4.1006783799076529e-01 2.1163593669901393e-01 9.2753438432293223e-01  -1.1577036375595935e+00 2.0733865182534599e+00 -3.0344146436353209e-05  8.5215169574426575e-01 4.7346398432151693e-01 5.7263882233584384e-01  1.0022379809009641e+00 4.5689449104362512e-01 1.9618178665800920e-01  9.2555332439374427e-01 7.2576203728580713e-01 4.5695897490943249e-01  3.4997223397122706e-01 1.2382267138021312e+00 7.2124962630145684e-01  8.8402872032231150e-01 1.7978211551833536e+00 5.2530278862861357e-01  -1.8896863866461661e-03 9.8508267296322827e-01 7.9866793479607512e-01  1.0224386497387328e+00 1.1763378861015681e+00 2.0706929945934713e-01  -1.0038207252900051e+00 4.7251616913936084e-01 1.8823594981981831e-01  5.9767814601662549e-02 6.9010219508842086e-01 9.7589612126057768e-01  -9.4909907925557713e-01 4.9644355409630347e-01 3.8582478187051156e-01  -5.9709446949601064e-01 1.0857395607036853e+00 8.1318563246621212e-01  -9.0257387318943660e-01 2.0242663125334532e+00 4.5907454845709950e-01  -1.2331744637925475e+00 2.8356079727390071e+00 1.3289537495761447e-04  7.7259730556004680e-01 1.0127893467502416e+00 7.0213595563957742e-01  5.9065720918398934e-01 2.6666040264258211e+00 1.8055687812006217e-02  -4.7714828543280097e-01 1.4772953080479703e+00 6.4615128089332707e-01  6.4166296502606723e-01 2.0133024613881547e+00 4.5053480074091601e-01  6.8489837279658006e-01 1.6561362179432726e+00 6.2000718058913395e-01  -1.8542202947364600e-01 2.5713438124446517e+00 -4.3152057604872890e-01  -6.3293788137914102e-03 2.3727666770652287e+00 -3.5216171723422135e-01  -1.1429502552042048e+00 2.1712647044526787e+00 1.7518451963030268e-01  9.9647599170515144e-01 -6.1105456510725597e-07 1.9820942861543267e-01  7.4500399167689979e-01 2.9204489119676356e+00 2.3195644778947089e-02  1.9820799897227639e-01 1.3572365821215438e-06 9.9649211429618911e-01  -1.9821644960169407e-01 2.4086631135857289e-07 9.9648259058670730e-01  5.6445620585014766e-01 2.1709421701674197e-07 8.4477731186798088e-01  1.8375564084723389e-01 2.5710446115478578e+00 -4.3226648553683716e-01  8.4477858320431631e-01 -2.2463567224062134e-07 5.6446233209372765e-01  1.1100144831859335e+00 3.0243025093852647e+00 1.3127200029346048e-01  -4.6919007833940285e-01 2.7450991863634724e+00 -2.0554266512816471e-01  -5.6446410327293928e-01 -2.7692625282362370e-07 8.4477229782914964e-01  -6.9952273584843544e-02 2.0880412024495256e+00 -1.1331480570013698e-01  9.2179771657703602e-01 2.7948225451503101e+00 1.9155704147394004e-01  4.7052085606588623e-01 2.3794410728294126e+00 5.7872120677334674e-02  6.0768734799911883e-01 2.3451665982091496e+00 2.4446737394716003e-01  7.5793759983600340e-01 2.5758858143652286e+00 2.2810679017948093e-01  3.3635888480222548e-01 1.5574294044174510e+00 4.8030302755863197e-01  -6.8149820120370685e-01 2.7437114954485575e+00 7.0776145374084595e-02  -3.3171812851527266e-01 1.8869256666865250e-01 9.5658765645080890e-01  -1.1528054560358323e+00 2.5586468083485401e+00 1.7586312173878771e-01  -9.4210015520589241e-01 1.6448748902174364e+00 5.0403594831352960e-01  -1.0585188029950032e+00 1.5329260201356127e+00 2.1179670095335271e-01  -1.0990271323247516e+00 1.6972464337029689e+00 -2.9547098851921725e-05  -7.7608090275213448e-01 1.6468835777618562e+00 6.1155230134650074e-01  -5.7018816397341388e-01 3.9102569650025154e-01 8.4568875063515769e-01  1.2341070806432788e+00 2.8354680976423485e+00 -1.2560104864809877e-06  -1.0275492397581811e+00 9.4455229040354316e-01 -1.7272878266467981e-05  1.0182457334904191e+00 1.8899381277127356e-01 -2.9244521453360418e-05  1.0996376151430194e+00 1.6971299723002242e+00 -1.6599794351302006e-05  1.0276078887671878e+00 9.4452373951945046e-01 -4.8294083456442002e-05  -1.0489258824496035e+00 1.3218408470566083e+00 -3.0694931363867527e-05  1.2064941792928046e+00 2.4528778151826582e+00 -3.1061649371573549e-05  -1.2056883058283712e+00 2.4530152819815290e+00 3.9338467035056701e-05  7.4198571903955779e-01 2.8693986540045152e-01 7.0263353422108155e-01  -1.0073979832684019e+00 1.8741896790145056e+00 4.0808186123381357e-01  -7.8753945892597177e-01 6.3506174608019028e-01 6.6621333370079105e-01  -3.0939622319632432e-01 1.1628476658829763e+00 7.5205672190936046e-01  -6.7615528417485982e-01 1.8768650185206444e+00 5.2837179560545422e-01  -4.1771989710810320e-01 1.6644337684626953e+00 4.8418033560740148e-01  -5.3287486229920067e-01 2.3371602315761102e+00 1.6947869864411641e-01  5.3516203484846914e-01 8.9895042054112217e-01 8.6305129738678110e-01  1.8038802185214400e-01 2.0103472770475936e+00 -3.4311735629932189e-03  4.7716514512572072e-01 1.7909783926032465e+00 4.5804537938224393e-01  1.0022157450099438e+00 2.4447499431686865e+00 3.0389650166400445e-01  1.1453689937717535e+00 2.2415228041594126e+00 1.8298477813953107e-01  1.1093003650343924e+00 1.8834132524617682e+00 1.8888541371536388e-01  -2.2331025323051637e-01 1.0178687948696139e+00 8.2441052804158932e-01  7.1062010596822223e-01 1.2501799849202830e+00 7.3359121787133819e-01  5.2481409703077297e-01 1.4875677834956524e+00 6.6211739995398944e-01  -2.0607939987773957e-01 4.3797335779275731e-01 9.7741421584664279e-01  -1.0075417530407924e+00 1.5144442222706045e+00 3.9139984177516629e-01  -9.8516990224446777e-01 2.3061366016566844e+00 3.4808921554323585e-01  -1.0102182146442999e+00 6.4954306832345510e-01 1.6233205086276414e-01  4.1781356880689687e-02 1.7994136771435767e+00 1.0817248508987841e-01  5.7502615996581263e-01 4.3557213466428590e-01 8.4314970422252911e-01  2.3977431619610254e-01 4.1325341421539175e-01 9.7229019710181031e-01  1.1131488921061572e+00 2.6391457039316628e+00 2.0333749598530673e-01  7.8291412754603851e-01 2.2431929365472043e+00 3.9319989660244831e-01  -5.0448004372172572e-01 2.4624834255214383e+00 4.8064402121659688e-02  -5.1669636185015744e-01 1.8254329454513329e+00 4.7182088681215301e-01  1.0116812367706549e+00 2.0700456034916050e+00 3.7908227203606154e-01  -5.0221472803853601e-03 1.2068825838421529e+00 5.8811412535957308e-01  3.2900924061229697e-01 2.1203807148093934e+00 5.1668036207234237e-02  3.4455722148061424e-01 1.8568800282552465e+00 2.6650606026153351e-01  1.8668875340416672e-02 1.8048379974457313e-01 1.0070899694156885e+00  -7.5654668371514033e-01 2.5482074347542389e+00 2.4339151002010784e-01  1.7440484656688079e-01 1.6365794333083918e+00 2.8517699384462836e-01  3.1899965483130888e-01 2.3997949790790281e+00 -1.5951834408315790e-01  -3.1795757940872299e-01 5.7074963517403887e-01 9.5116787235843803e-01  -4.8951526860508088e-01 5.6743034126042446e-01 8.9072399798017554e-01  6.0673710999413301e-02 2.2542988632560057e+00 -2.4808598856778860e-01  -1.7671960686281271e-01 2.0048621770792603e+00 -1.7231096558819887e-03  -9.0217470309671421e-01 6.3540837635328506e-01 4.9727446007158566e-01  -9.6737383512928898e-01 8.6197952072876349e-01 3.6579346210038810e-01  -3.6436120942285238e-01 2.1554867429394493e+00 7.0099581286364343e-02  -3.0674226654459841e-01 1.8657018677885773e+00 2.1710472544165621e-01  -1.0090769991504915e+00 2.8350225914261562e-01 1.4521403840754477e-01  7.8740854338202537e-01 1.3583329430438026e-01 6.4535957971240676e-01  -6.4324146260512494e-01 1.3894012438799672e-01 7.8861874412823474e-01  -1.0960597114707173e+00 1.7597241143538447e+00 1.6950338625890116e-01  1.0416409192759257e+00 1.3511756694966861e+00 1.7939416906367608e-01  -5.0161359270439432e-01 8.7449998399406315e-01 8.7891884393434916e-01  -5.9750127916878648e-01 7.3471834262406177e-01 8.3384433546590575e-01  7.1911132386267189e-03 1.5248877461280999e+00 3.2377718770407776e-01  -9.7397133934695623e-01 1.3941951273977632e-01 2.9532825109924221e-01  -5.6428075329799221e-01 2.6482951140114084e+00 -1.3489737012781489e-03  1.0176157300917348e+00 8.5029777629475467e-01 1.3658406718147115e-01  -1.7413451611688274e-01 1.6803221834182303e+00 2.5021954040994537e-01  6.8519496401641056e-01 6.3526644940022425e-01 7.6749671441232525e-01  -9.1200460175334108e-01 3.5561562325917573e-01 4.6287283794013623e-01  2.1916805577103951e-01 2.2681515909147683e+00 -1.7074517735898509e-01  8.3691506302249086e-01 1.5830530131333262e+00 5.9996956287559100e-01  4.8209966416716105e-01 1.1829313389249374e+00 7.9921957247669684e-01  -3.0531141804665002e-01 2.3066202440491241e+00 -1.1137184404297311e-01  7.8305426565723812e-01 1.9517753521733927e+00 5.0795406445926772e-01  9.9939047751502919e-01 1.7419385132925786e+00 4.2576707708072720e-01  -7.4461885613926415e-01 4.5655642884198350e-01 7.0597287232021333e-01  2.1434364123627941e-01 7.4775128440317407e-01 9.5742170762098300e-01  -5.5084154163600441e-01 2.0847090827549950e+00 3.4809973594650984e-01  -5.9760823502011728e-01 1.2437527169272851e+00 7.7358917633235758e-01  -7.3546786408819109e-01 1.0356970518675359e+00 7.3595524043510352e-01  -7.9421579786776664e-01 1.3478146521026619e+00 6.6865061406143900e-01  9.4675142950347424e-01 9.3757339986479582e-01 4.3090263670854762e-01  -9.8141576100540895e-01 1.1797920163110029e+00 3.8101547709732303e-01  8.9766834544871066e-01 1.2513407961509410e-01 4.7950635171124012e-01  9.1702264869430605e-01 3.8410692194205931e-01 4.5405688041662240e-01  -6.1007125430222087e-01 1.5673746098021926e+00 6.4965004978518648e-01  9.8394805930897289e-01 1.4445919191420962e+00 4.3357656824557467e-01  -8.345696219661771