<?xml version="1.0"?>
<VTKFile type="UnstructuredGrid"  version="0.1"  >
<UnstructuredGrid>
<Piece  NumberOfPoints="758" NumberOfCells="1386">
<Points>
<DataArray  type="Float64"  NumberOfComponents="3"  format="ascii">-1.570796326794897 3.048 0  -1.570796326794897 0 0  1.570796326794897 0 0  1.570796326794897 3.048 0  0 0 0  0 3.048 0  -1.570796326794897 1.524 0  1.570796326794897 1.524 0  -0.04609926118424437 1.524 0  0.7853981633974483 0 0  0.7623485328053261 2.262242601661362 0  -0.7853981633974483 0 0  -0.7853981633974483 3.048 0  0.392699081698724 0.7745759241961347 0  -1.570796326794897 0.762 0  -0.8084477939895706 2.0955 0  -0.68277245543452 0.8915343570675713 0  0.7853981633974483 3.048 0  0.778743707341909 1.468410948960538 0  2.780093748954961e-16 2.285302774973185 0  -1.570796326794897 2.286 0  1.570796326794897 0.762 0  1.570796326794897 2.286 0  -0.9375370967763674 1.47348297960658 0  0.9831575747762593 0.9003629142671278 0  -0.3926990816987241 0.4064697549061488 0  1.177419588818055 1.905 0  0.3692901340097942 1.880893989147954 0  -0.4920225169641509 2.564371687128368 0  0.3926990816987241 3.048 0  1.178097245096172 0 0  1.155705348811136 2.643920532523289 0  -1.178097245096172 3.048 0  -1.178097245096172 0 0  -0.1391296372266528 0.8873724190154949 0  -1.10527745318919 2.528282743051346 0  -0.9817477042468103 0.4742759268549471 0  -0.3416666987802651 1.923944646262223 0  -1.570796326794897 1.905 0  -1.156555306160469 1.030861936336814 0  0.7648449098493205 0.4764142032227 0  0.3926990816987241 0 0  -0.4820376416180818 1.326151321396512 0  0.06374421723344185 0.4545169930886408 0  0.1972735722393064 1.163324878565267 0  0.3900417218314142 2.566922767651637 0  1.570796326794897 0.381 0  1.188877612935585 1.295195418509834 0  1.179914028402171 0.5308585702661928 0  0.7660075594126428 1.865233039449035 0  0.6330293131838399 1.095171663968746 0  -1.201232463242587 2.144287146570887 0  -0.3926990816987241 0 0  -0.3926990816987241 3.048 0  1.178097245096172 3.048 0  0.7684409382397209 2.649499271873753 0  -1.236954997304436 1.7145 0  -0.1088573452899617 2.666651387486592 0  -1.570796326794897 1.143 0  -1.570796326794897 0.381 0  1.570796326794897 1.143 0  1.570796326794897 1.905 0  1.570796326794897 2.667 0  -1.570796326794897 2.667 0  -0.6730839067294777 1.743003792473746 0  1.199831389396789 2.275437921225198 0  0.3936837537618041 1.495643752599615 0  0.01539369169800942 1.928544709491661 0  0.4156551272669651 0.4219033286010089 0  0.3401546043708642 2.225103550856524 0  -0.3379897306391274 2.262671266279809 0  -1.23624174049596 0.7000907110925838 0  -1.265224057170889 1.360131453617764 0  -0.1224339018241312 1.210043725539656 0  1.289286200625578 0.9918698881707442 0  -0.7751142346211329 1.197848666814478 0  1.003546186550495 0.2660297686099683 0  0.1963495408493621 2.808538634159524 0  -0.8079023568959116 2.703551618159924 0  -0.3480226984353056 1.610059855391589 0  1.075147893506229 1.598068412087719 0  -0.8290627893979112 2.399544545867518 0  0.6965048925255637 0.7972100472372819 0  -1.257765094876752 0.3107645483825858 0  -0.6724835324263325 0.5684215760013651 0  -0.3995059642389676 0.7173610149075536 0  0.9136951972244611 1.187564504803626 0  -0.964259350608907 0.8095514380783081 0  -0.7565990314517038 0.2897049735129544 0  -0.9603859887840651 1.834914433810327 0  -0.1457055965762301 0.2521630699436873 0  0.1963495408493621 0.2041911848053476 0  0.6241974196550791 0.231695999252114 0  -0.4098815011312292 1.029160072548571 0  0.9592800715482012 2.452820690856482 0  0.9648684169153161 2.840751931000357 0  0.5890486225480862 3.048 0  0.164631037784102 1.698913854044779 0  0.5664480837073581 2.070920238540226 0  1.374107957806476 1.7145 0  0.9861079629544779 2.102471438422718 0  -1.374446785945534 3.048 0  -1.288827800789186 2.762781313597598 0  1.353232957571468 2.835634774483438 0  1.302158670506274 0.2650078124691045 0  0.1394669809465775 0.8907702620243092 0  -0.5631487221059602 2.830992231257464 0  1.372837635547072 2.483038902756259 0  -0.1493395228831287 0.618617259260858 0  -1.32327048447753 2.378769394323546 0  0.56080204725298 1.699622905297025 0  1.570796326794897 2.0955 0  0.5403456747786348 2.786446773498672 0  -0.9817477042468103 0 0  -0.5847039960246873 2.326882432521036 0  0.1225428891326576 2.526494255738436 0  -0.9817477042468103 3.048 0  -0.5522901559753841 2.071668786267058 0  -1.370864794258017 0.9075071715671403 0  -1.043891045637083 1.250611220450313 0  -0.1652643923634778 2.09141301924679 0  -1.044446740946883 2.764982067459552 0  -0.1610370079820225 1.763280243096074 0  -0.3136912237752232 2.810498886211121 0  0.5400974078002052 2.370472734822523 0  -0.7009161718414544 1.427243880175582 0  0.902907438200502 0.6735032943420574 0  -0.9879196222361604 0.2371379634274736 0  1.319268546233604 0.7412771512308228 0  0.5578373583610097 0.608241627784878 0  0.5756483102040615 1.332636919938113 0  -0.5281701577409 0.2032348774530744 0  -0.266729509930448 2.489223923247521 0  -1.570796326794897 0.5715 0  -0.2430656531629531 1.405631921096758 0  0.253622337931223 0.5884397663452474 0  1.284044721043478 1.50372037617638 0  1.570796326794897 1.3335 0  -0.9904333867980613 2.235882060371517 0  0.9871146764618406 1.395690276854986 0  -1.374446785945534 0 0  0.3981951765262902 1.020833864419675 0  0.1670583512016766 1.405384478716078 0  -1.330327693484763 1.938638984813805 0  0.2106653067452682 2.040805097078886 0  1.570796326794897 0.5715 0  1.334822181490566 2.081373939821734 0  -0.9303227889097604 1.033236710715967 0  -1.34639228476592 1.150776798768373 0  -1.570796326794897 0.1905 0  1.106697207481837 1.099709897393925 0  0.4137866939027022 0.2104288000383385 0  -1.570796326794897 2.0955 0  0.9761377489246634 0.4754251272674608 0  1.377108465632662 0.4605024587280874 0  1.108114944719677 0.7297638044096917 0  0.3695908229138113 1.285681859811955 0  0.9799112840676307 1.800306505551499 0  -0.001696842075803034 1.042028929293442 0  1.366537356420357 1.185723700290463 0  -1.385029840108318 0.47625 0  0.05842649915411911 0.6874537157920781 0  -1.183268988745763 0.4997334438341218 0  -0.6073502281622543 1.081347079085406 0  -1.026941765261019 2.031536576622642 0  -1.570796326794897 2.8575 0  0.8159726599830506 1.011928543199529 0  0.7652782693277244 2.849245002237192 0  -0.5252326280373281 1.520125074885265 0  0.7648326174724897 2.063743853392348 0  0.757099741434616 1.666331708950521 0  -0.1963495408493621 3.048 0  -0.005410422648647092 2.843333256403111 0  -1.395368347654653 2.19075 0  1.374446785945534 0 0  0.9817477042468103 3.048 0  0.1963495408493621 0 0  -0.1963495408493621 0 0  0.5890486225480862 0 0  0.1963495408493621 3.048 0  0.9817477042468103 0 0  1.374446785945534 3.048 0  -0.5890486225480862 3.048 0  -0.5890486225480862 0 0  -0.06865319188571758 2.471928549109083 0  1.159049337209348 2.838090892449816 0  0.5817075150535711 2.596909954318943 0  0.7656515661107315 2.455866896253367 0  0.9620790410056582 2.647119292933887 0  0.3676829480103987 1.68739481709134 0  -0.8886101495223063 2.878912500124773 0  -0.3317793704126089 0.1873756770788371 0  -1.383208664444332 2.577695923010364 0  -1.043597917648523 1.648216005744782 0  -1.362178343413552 1.546177620526679 0  -1.570796326794897 1.7145 0  -0.8462722504471433 1.648434957877788 0  -0.588076822054871 0.3899352838051667 0  1.570796326794897 2.8575 0  -1.570796326794897 0.9525 0  1.570796326794897 0.1905 0  1.570796326794897 1.7145 0  1.570796326794897 0.9525 0  -1.570796326794897 1.3335 0  1.570796326794897 2.4765 0  -1.570796326794897 2.4765 0  0.8103777117362174 0.287468585434799 0  -1.145334531235929 1.881885620422454 0  -0.8620560674467429 0.6361265362229395 0  -0.321688879263093 1.207848147265888 0  -0.7798551871678058 1.904240998338365 0  -0.4724954359209014 1.769587110195458 0  -0.667402576232105 2.495985359319255 0  0.5365063314111709 0.8945566719544227 0  0.1855702280441107 2.342745654422604 0  0.55510120733165 1.88540118775351 0  1.188295809121239 2.460939894898248 0  1.38587897409014 2.260870763688798 0  1.383978812419919 1.901097375082534 0  -0.2265735189171196 1.049795314962436 0  0.7387890113368257 1.246392780742437 0  0.5763234466275948 1.516457524623135 0  -0.203279258075353 0.4348372558382012 0  -1.179202350299698 1.523245956950107 0  -1.151844216720993 2.318990544544152 0  -1.410806081599612 0.6547540757597369 0  0.04190096621848406 2.108399609871347 0  0.5925649981629265 0.4343292987553075 0  0.2371113691258682 0.4102816185532077 0  1.334103818253725 2.657728219912091 0  0.9405077369493808 2.275181409651143 0  -0.633962040105568 2.669303984283053 0  -0.6045614816381242 1.904349918307267 0  1.159697673803787 2.079238591118184 0  -0.004643801590645341 1.347662554528907 0  0.3691400131247499 2.395423267764724 0  0.3855005143298051 2.055603978165229 0  0.01839821075864462 0.1788084577298442 0  -0.9568120219060965 2.61629404172056 0  0.1783135820912846 1.871116340262054 0  0.3649950158263953 2.745288921627024 0  -0.3142054567155264 0.5671999812317062 0  -0.4933549623779417 0.564740705097546 0  0.06092775470575962 2.685867440722903 0  -0.1801827362748675 2.337517890002858 0  -1.063355415037434 0.6386189748554 0  -1.205242865599393 0.8676070232612285 0  -0.4176020549597784 2.412196127179313 0  -0.3347051678178828 2.093252344225509 0  -1.427772711006951 0.2857500000000001 0  0.8835729338221293 0.1362887052191026 0  -0.6831011505337878 0.1389086130988801 0  -1.403875662049666 1.77648180985222 0  1.394165436236593 1.362588987767805 0  -0.5007942298153729 0.8700626692351643 0  -0.6093220848169366 0.7321530406295067 0  0.007534593095922887 1.760126887057542 0  -1.276272015520854 0.140425968067263 0  -0.7270478511000733 2.847016806985676 0  1.436331331726002 0.85725 0  -0.1770320080670663 1.927167796173981 0  0.7200726153501196 0.6345534912379586 0  -1.099983122078282 0.3577316115390257 0  0.2324759135153202 2.648405702327079 0  0.9054371869972004 1.582409569434113 0  0.5000672234640285 1.188708149930449 0  -0.340793734207542
[...]
<PointData  Vectors="phi"> 
<DataArray  type="Float64"  Name="phi"  NumberOfComponents="3" format="ascii">-1.0197979578986376e+00 3.0473771415962321e+00 -1.6799080359340858e-05  -1.0160016976177302e+00 -1.0154233062936766e-08 -1.0900259030518613e-05  1.0160019445996837e+00 -7.7666403830494898e-09 -1.2757790499560275e-05  1.0197997455339032e+00 3.0473770619029037e+00 -7.8191814002554439e-06  -5.9478531333772596e-06 3.3578609234603759e-09 1.0160018681320206e+00  -1.2667105716833248e-05 3.0491334299506323e+00 9.9218626382695463e-01  -1.0185703136858244e+00 1.5234389330464106e+00 -1.7822707172403687e-05  1.0185720696891434e+00 1.5234387441574839e+00 -2.5962518540485256e-05  -4.6818470820853768e-02 1.5247438992807623e+00 1.0116484880417771e+00  7.1842644605561012e-01 1.0892247354563125e-08 7.1841592809386434e-01  7.0484572366005882e-01 2.2620436352122715e+00 7.3419176875285241e-01  -7.1842528271961359e-01 -9.5184323181045634e-09 7.1841741265370940e-01  -7.2503349522755289e-01 3.0476800154377592e+00 7.1956732399880119e-01  3.8881901161141846e-01 7.7484511390336386e-01 9.3782721390864632e-01  -1.0171189248570178e+00 7.6164363331276685e-01 -1.9474514028756016e-05  -7.3763290960894912e-01 2.0952666992996472e+00 7.0113831717463759e-01  -6.4130154139256534e-01 8.9159573403959658e-01 7.8762604392371982e-01  7.2503417275974347e-01 3.0476813416850130e+00 7.1956989845927177e-01  7.1475322189923596e-01 1.4683294869789894e+00 7.2242284033309623e-01  5.2654065651435979e-06 2.2863861067455757e+00 1.0081348019952445e+00  -1.0195361657908437e+00 2.2853807073682990e+00 -2.0843166001623512e-05  1.0171203425852193e+00 7.6164354061549566e-01 -3.0882015324996887e-05  1.0195413087695913e+00 2.2853806583095704e+00 -5.4316007432073423e-05  -8.2063114011352445e-01 1.4732180691622878e+00 6.0087222937445051e-01  8.4629064265183451e-01 9.0017448412049672e-01 5.6306494325944600e-01  -3.8876754180355733e-01 4.0661778737876375e-01 9.3829632347994318e-01  9.4157862910683110e-01 1.9044721863007117e+00 3.8944594276286121e-01  3.6704981075575166e-01 1.8814510434579987e+00 9.4401949028708831e-01  -4.8217299964679339e-01 2.5646595234033263e+00 8.9218291854833742e-01  3.9157574648609628e-01 3.0485236951657892e+00 9.3289775512312212e-01  9.3866230783919768e-01 -1.2812453389941697e-08 3.8880678130505375e-01  9.3452463979951816e-01 2.6433452933277422e+00 4.1003611190868400e-01  -9.4400401483382324e-01 3.0474141863740929e+00 3.8920899706541623e-01  -9.3865898784655533e-01 -3.4993097801324868e-08 3.8881447911798794e-01  -1.4088939241377907e-01 8.8780714644969627e-01 1.0049584454416725e+00  -9.1260315847496676e-01 2.5277297142456696e+00 4.5636619700456721e-01  -8.4504233940418760e-01 4.7417763216066866e-01 5.6438632648719167e-01  -3.4070476525768295e-01 1.9245541422111265e+00 9.5343921109299123e-01  -1.0191614366158002e+00 1.9043956655061642e+00 -2.4405837278694410e-05  -9.3130731046641224e-01 1.0305290302616787e+00 4.0886479035871487e-01  7.0360335821372466e-01 4.7641718472495209e-01 7.3281846082430113e-01  3.8881349004251686e-01 2.0130492110217724e-08 9.3866015744588271e-01  -4.7124377229968878e-01 1.3264621853297665e+00 8.9861442783451095e-01  6.4705510248578582e-02 4.5475409147143619e-01 1.0134402485590224e+00  1.9912677700167658e-01 1.1638538932463245e+00 9.9442832996250485e-01  3.8764046232192695e-01 2.5674692650082243e+00 9.3447461000620302e-01  1.0165195570240282e+00 3.8080709059103951e-01 -1.9347332016698670e-05  9.4461394143710442e-01 1.2947771143990139e+00 3.7859777056177613e-01  9.3988577720884048e-01 5.3066619517089075e-01 3.8709407609498114e-01  7.0631451564878889e-01 1.8651058948680224e+00 7.3136768108909689e-01  6.0138813589261353e-01 1.0952871321752695e+00 8.1823791461919693e-01  -9.5112165459214848e-01 2.1437226363862338e+00 3.6706744553281806e-01  -3.8880390139061771e-01 4.9417481087028270e-10 9.3866357051931892e-01  -3.9158200052721753e-01 3.0485248990199936e+00 9.3292933894028340e-01  9.4400400604986934e-01 3.0474141892252513e+00 3.8921407112893958e-01  7.1089876118299078e-01 2.6492253911245225e+00 7.3058229673441089e-01  -9.6269836220471505e-01 1.7139744803314674e+00 3.3290612139109788e-01  -1.1044266816455724e-01 2.6678169524991135e+00 9.9884400155130404e-01  -1.0178468996320298e+00 1.1425206428683170e+00 -2.6775901770001377e-05  -1.0165197219954687e+00 3.8080712929565991e-01 -2.5177649070618565e-05  1.0178464546388013e+00 1.1425204855247781e+00 -9.9036772540346475e-06  1.0191651564458224e+00 1.9043955917485256e+00 -5.1926551075021862e-05  1.0197316059697039e+00 2.6663786452418621e+00 -2.2981962007101254e-05  -1.0197290315342364e+00 2.6663787026281236e+00 -2.2570244798794441e-05  -6.3465251530793831e-01 1.7430387999799766e+00 7.9311884730580040e-01  9.5088431509970683e-01 2.2748639662139101e+00 3.6843905270427690e-01  3.8992793918920049e-01 1.4960951588652349e+00 9.3598655110511408e-01  1.5633816579702500e-02 1.9294706964160147e+00 1.0105566778760975e+00  4.1019844625990820e-01 4.2204921635531550e-01 9.2912517290776964e-01  3.3945601295564587e-01 2.2257606910480199e+00 9.5282738677132484e-01  -3.3742237187297547e-01 2.2633361260668488e+00 9.5338757337018332e-01  -9.6047062205284728e-01 6.9982047398528591e-01 3.3360702155035404e-01  -9.7100127265092162e-01 1.3596617297861604e+00 3.0562766065388236e-01  -1.2408452820957215e-01 1.2106272882515650e+00 1.0063134620800203e+00  9.7737756525838870e-01 9.9148619092147039e-01 2.8222926177827801e-01  -7.1169498641620410e-01 1.1978036351325598e+00 7.2512226839949734e-01  8.5701631793823430e-01 2.6597017659995065e-01 5.4590264831571222e-01  1.9859875987379319e-01 2.8095666579076699e+00 9.8531696270524227e-01  -7.3958595530085025e-01 2.7032186328644774e+00 7.0243742352528304e-01  -3.4667125053081466e-01 1.6105950881410294e+00 9.5229826567174869e-01  8.9600572633360576e-01 1.5976564354036735e+00 4.8308114487864301e-01  -7.5312630376342171e-01 2.3992263561495397e+00 6.8629581540600548e-01  6.5202345835119646e-01 7.9725836597466204e-01 7.7884497626052518e-01  -9.6696156976716563e-01 3.1063472743089310e-01 3.1288242210456185e-01  -6.3297060352448387e-01 5.6847670997200073e-01 7.9444827229122572e-01  -3.9518515907881058e-01 7.1760857906804987e-01 9.3525368936418996e-01  8.0546598028430583e-01 1.1873781663009517e+00 6.2020200983381180e-01  -8.3534458226258135e-01 8.0939477653201253e-01 5.7895667292683239e-01  -6.9746655858777984e-01 2.8971125621480731e-01 7.3870022509193101e-01  -8.3513636764779120e-01 1.8345531215566202e+00 5.8213283724652598e-01  -1.4751868944541985e-01 2.5228925716505934e-01 1.0049750231767425e+00  1.9820502289772082e-01 2.0428925917616297e-01 9.9627993873782728e-01  5.9378605811292584e-01 2.3173290159800627e-01 8.2428856771577907e-01  -4.0492247023077760e-01 1.0294876270378037e+00 9.3060763930601453e-01  8.3646349021073607e-01 2.4523610356289467e+00 5.8358222438685770e-01  8.4093607905608714e-01 2.8402640973576299e+00 5.7937309877950005e-01  5.6980270384243137e-01 3.0480193470615373e+00 8.4427836421979152e-01  1.6652531948827909e-01 1.6996742414842323e+00 9.9842978547198658e-01  5.4665217854326154e-01 2.0711090969535677e+00 8.5511470676465318e-01  9.9928172952886762e-01 1.7139324756875587e+00 1.9854450933771312e-01  8.5070276846013970e-01 2.1020372122529887e+00 5.6075646507663734e-01  -1.0007243344737011e+00 3.0473842362357648e+00 1.9826807355238177e-01  -9.8031488932352617e-01 2.7621765495946575e+00 2.8283226920825250e-01  9.9628665466824162e-01 2.8350220196893385e+00 2.1937522339659865e-01  9.7985468910114226e-01 2.6489048477192095e-01 2.6969620347173690e-01  1.4121004125468026e-01 8.9120656302544454e-01 1.0049074053332718e+00  -5.4641684390624601e-01 2.8310699945981317e+00 8.5749112585952436e-01  1.0000727694392955e+00 2.4824258444239549e+00 1.9985115971567396e-01  -1.5114491665922564e-01 6.1892464376881140e-01 1.0039777898177755e+00  -9.8895942650317981e-01 2.3781642351808663e+00 2.4897165494320098e-01  5.4115130409255097e-01 1.6998439528555453e+00 8.5850853669248683e-01  1.0193793974620369e+00 2.0948853270478018e+00 -2.3004179957593812e-05  5.2623896997200548e-01 2.7865818108757385e+00 8.6912965803225894e-01  -8.4477299071913903e-01 -6.4996057470471707e-09 5.6446113511507390e-01  -5.6298793509363021e-01 2.3269978482888751e+00 8.4515927613773156e-01  1.2423156659184782e-01 2.5276031408342834e+00 9.9885600236466721e-01  -8.5118434402513288e-01 3.0474980534869398e+00 5.6544053331811828e-01  -5.3437509913043935e-01 2.0718856998577331e+00 8.6262917962158692e-01  -9.9705988508076238e-01 9.0712442550657912e-01 2.0177907810689688e-01  -8.7962346603362707e-01 1.2502990352873489e+00 5.1072479500765577e-01  -1.6717229974862563e-01 2.0923186768298478e+00 9.9628629939990498e-01  -8.8390041620372883e-01 2.7644492351411856e+00 5.1096677346412678e-01  -1.6291984032671483e-01 1.7640682283253697e+00 9.9871827592031093e-01  -3.1476633351027483e-01 2.8112297243467483e+00 9.5870798350364650e-01  5.2444880899929747e-01 2.3706778433643554e+00 8.6877819188366912e-01  -6.5606768065760490e-01 1.4272686267872907e+00 7.7548490168075057e-01  7.9804518584245054e-01 6.7341110901259227e-01 6.2903248645099896e-01  -8.4835850716526462e-01 2.3708843036368851e-01 5.5922317902951213e-01  9.8498472427804196e-01 7.4096516619468511e-01 2.5288150728529157e-01  5.3784674465301008e-01 6.0836910256164467e-01 8.6150132073319252e-01  5.5350133663598844e-01 1.3328298946904604e+00 8.5093599750391413e-01  -5.1198130908779660e-01 2.0328598951809515e-01 8.7742531475253427e-01  -2.6820736237887804e-01 2.4900680090299940e+00 9.7284863434788882e-01  -1.0167979413074535e+00 5.7122041671066737e-01 -1.5165080711831166e-05  -2.4454470538307571e-01 1.4062205190732506e+00 9.8362786007343128e-01  2.5488906946884787e-01 5.8870532662840458e-01 9.8286343595316539e-01  9.7690631987278143e-01 1.5032130380128133e+00 2.8734980483958861e-01  1.0182183123227235e+00 1.3329744775626593e+00 -1.4656144301190309e-05  -8.5355139233858213e-01 2.2354241641673371e+00 5.5720309354231456e-01  8.4937977841242807e-01 1.3953940405519054e+00 5.5964437133683276e-01  -9.9647962812626989e-01 -3.7822308708495182e-08 1.9820784618068371e-01  3.9400410283387410e-01 1.0211693939783693e+00 9.3526812455075570e-01  1.6894217962587121e-01 1.4060284148700952e+00 9.9918944359200645e-01  -9.9002550606505224e-01 1.9380564640320554e+00 2.4199435322571328e-01  2.1253465581965064e-01 2.0416392853519558e+00 9.8824098646708103e-01  1.0167989264364028e+00 5.7122038024804911e-01 -2.6608234060308610e-05  9.9133634713747165e-01 2.0807792324556664e+00 2.3756802706055513e-01  -8.1545849535360115e-01 1.0330635452040460e+00 6.0682307315517547e-01  -9.9226806693899783e-01 1.1503289521526425e+00 2.2607733110491060e-01  -1.0162400590429601e+00 1.9040250687625837e-01 -3.3805372659731306e-05  9.0980493352147340e-01 1.0993890894392060e+00 4.5466698585848614e-01  4.0848590612626218e-01 2.1050228060589843e-01 9.3008541303453562e-01  -1.0193785623369696e+00 2.0948855069533052e+00 -3.1353275577888684e-05  8.4185957489947527e-01 4.7532908595281226e-01 5.6911075283248080e-01  9.9758150541317547e-01 4.6028778151962235e-01 1.9557958096561057e-01  9.0986180236860237e-01 7.2954051217752969e-01 4.5342680723415207e-01  3.6709621589757163e-01 1.2861133124326591e+00 9.4553887428233763e-01  8.4629787530662870e-01 1.7999334206337758e+00 5.6580208151610922e-01  -1.7263586080313465e-03 1.0425576497405187e+00 1.0143581422942833e+00  9.9671052469950017e-01 1.1852605859402698e+00 2.0608597626084149e-01  -9.9912621783205857e-01 4.7602725919485883e-01 1.8766699067063458e-01  5.9314638993785578e-02 6.8780862677234944e-01 1.0134217408317969e+00  -9.4114606477169627e-01 4.9955062906909276e-01 3.8394509793313081e-01  -5.8010764010030635e-01 1.0814892856500746e+00 8.3336287762597783e-01  -8.7275180594021806e-01 2.0310811360031615e+00 5.2569772057992981e-01  -1.0197935413232555e+00 2.8568780592308625e+00 -3.0626742295229584e-05  7.4061103766199565e-01 1.0118613055957875e+00 6.9564439917393617e-01  7.0944547463463592e-01 2.8489571656877977e+00 7.3323662416857704e-01  -5.0990704738226411e-01 1.5203971576613102e+00 8.7726649786157673e-01  7.0600735955796690e-01 2.0635807139449938e+00 7.3228451546454265e-01  6.9925025566979360e-01 1.6662506635064647e+00 7.3757274713494547e-01  -1.9860576149965764e-01 3.0490323876556205e+00 9.8113633576523918e-01  -5.4798433212769875e-03 2.8446022622195168e+00 1.0009468108058348e+00  -1.0039835782822610e+00 2.1901412439374983e+00 1.7734686608000561e-01  9.9647900410915335e-01 -5.2761113112611844e-08 1.9821033503114299e-01  8.5118517973587349e-01 3.0474971769856842e+00 5.6544760024271923e-01  1.9820909361719016e-01 5.9558717149136545e-08 9.9648008538764798e-01  -1.9821733916046180e-01 3.4015974922319681e-08 9.9647792636390053e-01  5.6445658790598163e-01 1.3549253341077297e-08 8.4477603319056038e-01  1.9859384190624060e-01 3.0490268667955887e+00 9.8113273514391308e-01  8.4477363625785162e-01 -1.5014777995925815e-09 5.6445975529992765e-01  1.0007265070050051e+00 3.0473837166383162e+00 1.9827597058128049e-01  -5.6980451498129658e-01 3.0480199048359520e+00 8.4429242561241025e-01  -5.6446171963206937e-01 6.5910756034736807e-09 8.4477206000630634e-01  -6.9706452992973900e-02 2.4730700318513614e+00 1.0042007199002205e+00  9.3620566129174698e-01 2.8375125729985395e+00 4.0697815194418563e-01  5.6137895171535002e-01 2.5969822234295874e+00 8.4705421266724557e-01  7.0803410418578905e-01 2.4556270833638907e+00 7.3215855924753470e-01  8.3873284406365045e-01 2.6466411166480022e+00 5.8147665324086073e-01  3.6543111102985193e-01 1.6879198021246773e+00 9.4517344328347785e-01  -7.9461060654944971e-01 2.8784844928708764e+00 6.4142209891914681e-01  -3.3090902864485516e-01 1.8745197232878194e-01 9.6043366783385797e-01  -1.0021360055830215e+00 2.5770815805198728e+00 1.8951243154520006e-01  -8.8036960294813404e-01 1.6478180874026396e+00 5.1100336169400762e-01  -9.9651403382221204e-01 1.5456385292762744e+00 2.1042650378463496e-01  -1.0188907634972677e+00 1.7139129269331976e+00 -3.4927729073633930e-05  -7.6252743050209160e-01 1.6482383230129067e+00 6.7280897253820227e-01  -5.6362950937446898e-01 3.9000948131074531e-01 8.4506067053383116e-01  1.0197935364086408e+00 2.8568781945734396e+00 -2.1206349636166536e-05  -1.0174740294219089e+00 9.5207703886642014e-01 -1.7760878409301090e-05  1.0162403311031223e+00 1.9040240085695423e-01 -2.9370538483286632e-05  1.0188909129352999e+00 1.7139127609488169e+00 -2.1228717526383443e-05  1.0174774728240754e+00 9.5207687647842454e-01 -5.0206378516895257e-05  -1.0182188129787382e+00 1.3329746870012460e+00 -3.2461931805343070e-05  1.0196521476659546e+00 2.4758788437975903e+00 -1.6782412085447725e-05  -1.0196484818154998e+00 2.4758789999365982e+00 -1.8582809123403782e-05  7.3619385675237692e-01 2.8745888677122311e-01 7.0016607425268540e-01  -9.2851603844294173e-01 1.8813772674036173e+00 4.1933646725679774e-01  -7.7160609688956461e-01 6.3606469293102541e-01 6.6106447185105066e-01  -3.2126435035664941e-01 1.2083033549127546e+00 9.6210166146323384e-01  -7.1656920303916893e-01 1.9040859560214769e+00 7.2160724710366819e-01  -4.6295500912483095e-01 1.7699570586876916e+00 9.0217417166821801e-01  -6.3228722991937869e-01 2.4959026525660697e+00 7.9700869082156778e-01  5.1940747745627536e-01 8.9474707216490668e-01 8.7242697635394717e-01  1.8755968348957697e-01 2.3437081611278003e+00 9.9118130799966608e-01  5.3649796615791845e-01 1.8856258474317056e+00 8.6131467714351728e-01  9.4695679462049465e-01 2.4603602419436510e+00 3.7939693175565725e-01  1.0023540689028583e+00 2.2602607652648130e+00 1.8681869561892936e-01  1.0015074247017035e+00 1.9005077400410684e+00 1.8872748541748194e-01  -2.2821994650311209e-01 1.0502625275972095e+00 9.8849747300386859e-01  6.8484139973940006e-01 1.2463846654939919e+00 7.5035232566259236e-01  5.5426562773314358e-01 1.5166548045431090e+00 8.5032478633582342e-01  -2.0508177911157455e-01 4.3504619594518168e-01 9.9462673671494584e-01  -9.4137777994138949e-01 1.5227829006804290e+00 3.8772161560201346e-01  -9.3228614004866472e-01 2.3184307719482637e+00 4.1347147079376767e-01  -1.0039130138790957e+00 6.5445353202904410e-01 1.6185787471713950e-01  4.2538093480026400e-02 2.1093993526101618e+00 1.0086434286964552e+00  5.6744448637630651e-01 4.3440930522538329e-01 8.4247873861625677e-01  2.3863788716359907e-01 4.1047232903562675e-01 9.8715153195855654e-01  9.9184838620557370e-01 2.6571179464241306e+00 2.3831217722100925e-01  8.2473148915409811e-01 2.2747607598019606e+00 5.9887291000653020e-01  -6.0572541644747635e-01 2.6692546976515525e+00 8.1757987155493350e-01  -5.7878586198674975e-01 1.9044836215801932e+00 8.3412909225247056e-01  9.3494614578084800e-01 2.0786970600363066e+00 4.0605079876395533e-01  -4.7230493457409871e-03 1.3483318016916315e+00 1.0133908241768388e+00  3.6741567999132718e-01 2.3960278011837879e+00 9.4240446390666377e-01  3.8258148374082712e-01 2.0561535392751260e+00 9.3753449727041904e-01  1.8683853081391321e-02 1.7890117958046831e-01 1.0156541867216180e+00  -8.3555969934121332e-01 2.6158218613183717e+00 5.8582869839934637e-01  1.8023199586336569e-01 1.8719293720260879e+00 9.9529583461285087e-01  3.6420038135814631e-01 2.7458858687120906e+00 9.4297763354202568e-01  -3.1396434926584993e-01 5.6743553302990102e-01 9.6568086554687738e-01  -4.8118088100693457e-01 5.6489454334006595e-01 8.9434978796099618e-01  6.1865715917999081e-02 2.6870885311020425e+00 1.0022331446417287e+00  -1.8215930396433991e-01 2.3384863064685395e+00 9.9216971095020245e-01  -8.8848974829009730e-01 6.3844320902845286e-01 4.9364234432909554e-01  -9.4989960229471415e-01 8.6729600224753978e-01 3.6315771139503161e-01  -4.1325548493669673e-01 2.4126837918920891e+00 9.2425886181847439e-01  -3.3414018712310062e-01 2.0939020628576568e+00 9.5510194296661166e-01  -1.0059899198176814e+00 2.8560964667392230e-01 1.4484904457800171e-01  7.8540814425033656e-01 1.3627463525184128e-01 6.4453110736743513e-01  -6.4129273639135520e-01 1.3892272398443145e-01 7.8798331116317599e-01  -1.0048568532409103e+00 1.7759013813317284e+00 1.6883090925075714e-01  1.0024024769146120e+00 1.3620772505241887e+00 1.7851760546409021e-01  -4.8786696633538812e-01 8.7027829613369589e-01 8.9039392734527667e-01  -5.8155170740491202e-01 7.3226419233324525e-01 8.3261371341641655e-01  7.6650087021582014e-03 1.7609797980830606e+00 1.0115833004151564e+00  -9.7238115464820740e-01 1.4036603962564279e-01 2.9494023973903388e-01  -6.8071271468201577e-01 2.8467840914348930e+00 7.5939665011621282e-01  1.0080815787814386e+00 8.5687011238409072e-01 1.3621819678728520e-01  -1.7896126027971362e-01 1.9280019235086927e+00 9.9523615236852547e-01  6.7013387697889593e-01 6.3458218567117863e-01 7.6342571980025331e-01  -9.0572983962519327e-01 3.5762131717746687e-01 4.6087642131556361e-01  2.3448815904946105e-01 2.6493436121145075e+00 9.7980869712711383e-01  8.0106481084696224e-01 1.5821568164730433e+00 6.2678710802538462e-01  4.8735749865983269e-01 1.1889784515158976e+00 8.9025671954649155e-01  -3.4065725152493870e-01 2.6431371480436421e+00 9.5114591984823982e-01  7.9617245516968449e-01 1.9649431548923586e+00 6.3434842036857020e-01  9.2317148820682482e-01 1.7486335600021305e+00 4.3016811156309009e-01  -7.3429567026514342e-01 4.5712168233661044e-01 7.0213653533627685e-01  2.1196713115063187e-01 7.4511211058374383e-01 9.9273346277304342e-01  -6.3392686584691671e-01 2.1862517235103858e+00 7.9455404592707790e-01  -5.9070891333951436e-01 1.2423992369346257e+00 8.2585060056195636e-01  -7.0468936927336068e-01 1.0335617477488344e+00 7.3179466979207375e-01  -7.5747077221418224e-01 1.3453090882802847e+00 6.7777952831489874e-01  9.2303210818927739e-01 9.4255681981360617e-01 4.2678601890541512e-01  -9.4506393175742520e-01 1.1867081984759935e+00 3.7693738936183946e-01  8.9609989331954432e-01 1.2582741143134515e-01 4.7894859526201272e-01  9.1023448573175259e-01 3.8630396668652123e-01 4.5197959245015401e-01  -6.3291081152917927e-01 1.5837898498559206e+00 7.9435213675708605e-01  9.2301375841136113e-01 1.4513499420410045e+00 4.2895897065715466e-01  -8.6454729418505505e-01 2.39665454059355