<?xml version="1.0"?>
<VTKFile type="UnstructuredGrid"  version="0.1"  >
<UnstructuredGrid>
<Piece  NumberOfPoints="758" NumberOfCells="1386">
<Points>
<DataArray  type="Float64"  NumberOfComponents="3"  format="ascii">-1.570796326794897 3.048 0  -1.570796326794897 0 0  1.570796326794897 0 0  1.570796326794897 3.048 0  0 0 0  0 3.048 0  -1.570796326794897 1.524 0  1.570796326794897 1.524 0  -0.04609926118424437 1.524 0  0.7853981633974483 0 0  0.7623485328053261 2.262242601661362 0  -0.7853981633974483 0 0  -0.7853981633974483 3.048 0  0.392699081698724 0.7745759241961347 0  -1.570796326794897 0.762 0  -0.8084477939895706 2.0955 0  -0.68277245543452 0.8915343570675713 0  0.7853981633974483 3.048 0  0.778743707341909 1.468410948960538 0  2.780093748954961e-16 2.285302774973185 0  -1.570796326794897 2.286 0  1.570796326794897 0.762 0  1.570796326794897 2.286 0  -0.9375370967763674 1.47348297960658 0  0.9831575747762593 0.9003629142671278 0  -0.3926990816987241 0.4064697549061488 0  1.177419588818055 1.905 0  0.3692901340097942 1.880893989147954 0  -0.4920225169641509 2.564371687128368 0  0.3926990816987241 3.048 0  1.178097245096172 0 0  1.155705348811136 2.643920532523289 0  -1.178097245096172 3.048 0  -1.178097245096172 0 0  -0.1391296372266528 0.8873724190154949 0  -1.10527745318919 2.528282743051346 0  -0.9817477042468103 0.4742759268549471 0  -0.3416666987802651 1.923944646262223 0  -1.570796326794897 1.905 0  -1.156555306160469 1.030861936336814 0  0.7648449098493205 0.4764142032227 0  0.3926990816987241 0 0  -0.4820376416180818 1.326151321396512 0  0.06374421723344185 0.4545169930886408 0  0.1972735722393064 1.163324878565267 0  0.3900417218314142 2.566922767651637 0  1.570796326794897 0.381 0  1.188877612935585 1.295195418509834 0  1.179914028402171 0.5308585702661928 0  0.7660075594126428 1.865233039449035 0  0.6330293131838399 1.095171663968746 0  -1.201232463242587 2.144287146570887 0  -0.3926990816987241 0 0  -0.3926990816987241 3.048 0  1.178097245096172 3.048 0  0.7684409382397209 2.649499271873753 0  -1.236954997304436 1.7145 0  -0.1088573452899617 2.666651387486592 0  -1.570796326794897 1.143 0  -1.570796326794897 0.381 0  1.570796326794897 1.143 0  1.570796326794897 1.905 0  1.570796326794897 2.667 0  -1.570796326794897 2.667 0  -0.6730839067294777 1.743003792473746 0  1.199831389396789 2.275437921225198 0  0.3936837537618041 1.495643752599615 0  0.01539369169800942 1.928544709491661 0  0.4156551272669651 0.4219033286010089 0  0.3401546043708642 2.225103550856524 0  -0.3379897306391274 2.262671266279809 0  -1.23624174049596 0.7000907110925838 0  -1.265224057170889 1.360131453617764 0  -0.1224339018241312 1.210043725539656 0  1.289286200625578 0.9918698881707442 0  -0.7751142346211329 1.197848666814478 0  1.003546186550495 0.2660297686099683 0  0.1963495408493621 2.808538634159524 0  -0.8079023568959116 2.703551618159924 0  -0.3480226984353056 1.610059855391589 0  1.075147893506229 1.598068412087719 0  -0.8290627893979112 2.399544545867518 0  0.6965048925255637 0.7972100472372819 0  -1.257765094876752 0.3107645483825858 0  -0.6724835324263325 0.5684215760013651 0  -0.3995059642389676 0.7173610149075536 0  0.9136951972244611 1.187564504803626 0  -0.964259350608907 0.8095514380783081 0  -0.7565990314517038 0.2897049735129544 0  -0.9603859887840651 1.834914433810327 0  -0.1457055965762301 0.2521630699436873 0  0.1963495408493621 0.2041911848053476 0  0.6241974196550791 0.231695999252114 0  -0.4098815011312292 1.029160072548571 0  0.9592800715482012 2.452820690856482 0  0.9648684169153161 2.840751931000357 0  0.5890486225480862 3.048 0  0.164631037784102 1.698913854044779 0  0.5664480837073581 2.070920238540226 0  1.374107957806476 1.7145 0  0.9861079629544779 2.102471438422718 0  -1.374446785945534 3.048 0  -1.288827800789186 2.762781313597598 0  1.353232957571468 2.835634774483438 0  1.302158670506274 0.2650078124691045 0  0.1394669809465775 0.8907702620243092 0  -0.5631487221059602 2.830992231257464 0  1.372837635547072 2.483038902756259 0  -0.1493395228831287 0.618617259260858 0  -1.32327048447753 2.378769394323546 0  0.56080204725298 1.699622905297025 0  1.570796326794897 2.0955 0  0.5403456747786348 2.786446773498672 0  -0.9817477042468103 0 0  -0.5847039960246873 2.326882432521036 0  0.1225428891326576 2.526494255738436 0  -0.9817477042468103 3.048 0  -0.5522901559753841 2.071668786267058 0  -1.370864794258017 0.9075071715671403 0  -1.043891045637083 1.250611220450313 0  -0.1652643923634778 2.09141301924679 0  -1.044446740946883 2.764982067459552 0  -0.1610370079820225 1.763280243096074 0  -0.3136912237752232 2.810498886211121 0  0.5400974078002052 2.370472734822523 0  -0.7009161718414544 1.427243880175582 0  0.902907438200502 0.6735032943420574 0  -0.9879196222361604 0.2371379634274736 0  1.319268546233604 0.7412771512308228 0  0.5578373583610097 0.608241627784878 0  0.5756483102040615 1.332636919938113 0  -0.5281701577409 0.2032348774530744 0  -0.266729509930448 2.489223923247521 0  -1.570796326794897 0.5715 0  -0.2430656531629531 1.405631921096758 0  0.253622337931223 0.5884397663452474 0  1.284044721043478 1.50372037617638 0  1.570796326794897 1.3335 0  -0.9904333867980613 2.235882060371517 0  0.9871146764618406 1.395690276854986 0  -1.374446785945534 0 0  0.3981951765262902 1.020833864419675 0  0.1670583512016766 1.405384478716078 0  -1.330327693484763 1.938638984813805 0  0.2106653067452682 2.040805097078886 0  1.570796326794897 0.5715 0  1.334822181490566 2.081373939821734 0  -0.9303227889097604 1.033236710715967 0  -1.34639228476592 1.150776798768373 0  -1.570796326794897 0.1905 0  1.106697207481837 1.099709897393925 0  0.4137866939027022 0.2104288000383385 0  -1.570796326794897 2.0955 0  0.9761377489246634 0.4754251272674608 0  1.377108465632662 0.4605024587280874 0  1.108114944719677 0.7297638044096917 0  0.3695908229138113 1.285681859811955 0  0.9799112840676307 1.800306505551499 0  -0.001696842075803034 1.042028929293442 0  1.366537356420357 1.185723700290463 0  -1.385029840108318 0.47625 0  0.05842649915411911 0.6874537157920781 0  -1.183268988745763 0.4997334438341218 0  -0.6073502281622543 1.081347079085406 0  -1.026941765261019 2.031536576622642 0  -1.570796326794897 2.8575 0  0.8159726599830506 1.011928543199529 0  0.7652782693277244 2.849245002237192 0  -0.5252326280373281 1.520125074885265 0  0.7648326174724897 2.063743853392348 0  0.757099741434616 1.666331708950521 0  -0.1963495408493621 3.048 0  -0.005410422648647092 2.843333256403111 0  -1.395368347654653 2.19075 0  1.374446785945534 0 0  0.9817477042468103 3.048 0  0.1963495408493621 0 0  -0.1963495408493621 0 0  0.5890486225480862 0 0  0.1963495408493621 3.048 0  0.9817477042468103 0 0  1.374446785945534 3.048 0  -0.5890486225480862 3.048 0  -0.5890486225480862 0 0  -0.06865319188571758 2.471928549109083 0  1.159049337209348 2.838090892449816 0  0.5817075150535711 2.596909954318943 0  0.7656515661107315 2.455866896253367 0  0.9620790410056582 2.647119292933887 0  0.3676829480103987 1.68739481709134 0  -0.8886101495223063 2.878912500124773 0  -0.3317793704126089 0.1873756770788371 0  -1.383208664444332 2.577695923010364 0  -1.043597917648523 1.648216005744782 0  -1.362178343413552 1.546177620526679 0  -1.570796326794897 1.7145 0  -0.8462722504471433 1.648434957877788 0  -0.588076822054871 0.3899352838051667 0  1.570796326794897 2.8575 0  -1.570796326794897 0.9525 0  1.570796326794897 0.1905 0  1.570796326794897 1.7145 0  1.570796326794897 0.9525 0  -1.570796326794897 1.3335 0  1.570796326794897 2.4765 0  -1.570796326794897 2.4765 0  0.8103777117362174 0.287468585434799 0  -1.145334531235929 1.881885620422454 0  -0.8620560674467429 0.6361265362229395 0  -0.321688879263093 1.207848147265888 0  -0.7798551871678058 1.904240998338365 0  -0.4724954359209014 1.769587110195458 0  -0.667402576232105 2.495985359319255 0  0.5365063314111709 0.8945566719544227 0  0.1855702280441107 2.342745654422604 0  0.55510120733165 1.88540118775351 0  1.188295809121239 2.460939894898248 0  1.38587897409014 2.260870763688798 0  1.383978812419919 1.901097375082534 0  -0.2265735189171196 1.049795314962436 0  0.7387890113368257 1.246392780742437 0  0.5763234466275948 1.516457524623135 0  -0.203279258075353 0.4348372558382012 0  -1.179202350299698 1.523245956950107 0  -1.151844216720993 2.318990544544152 0  -1.410806081599612 0.6547540757597369 0  0.04190096621848406 2.108399609871347 0  0.5925649981629265 0.4343292987553075 0  0.2371113691258682 0.4102816185532077 0  1.334103818253725 2.657728219912091 0  0.9405077369493808 2.275181409651143 0  -0.633962040105568 2.669303984283053 0  -0.6045614816381242 1.904349918307267 0  1.159697673803787 2.079238591118184 0  -0.004643801590645341 1.347662554528907 0  0.3691400131247499 2.395423267764724 0  0.3855005143298051 2.055603978165229 0  0.01839821075864462 0.1788084577298442 0  -0.9568120219060965 2.61629404172056 0  0.1783135820912846 1.871116340262054 0  0.3649950158263953 2.745288921627024 0  -0.3142054567155264 0.5671999812317062 0  -0.4933549623779417 0.564740705097546 0  0.06092775470575962 2.685867440722903 0  -0.1801827362748675 2.337517890002858 0  -1.063355415037434 0.6386189748554 0  -1.205242865599393 0.8676070232612285 0  -0.4176020549597784 2.412196127179313 0  -0.3347051678178828 2.093252344225509 0  -1.427772711006951 0.2857500000000001 0  0.8835729338221293 0.1362887052191026 0  -0.6831011505337878 0.1389086130988801 0  -1.403875662049666 1.77648180985222 0  1.394165436236593 1.362588987767805 0  -0.5007942298153729 0.8700626692351643 0  -0.6093220848169366 0.7321530406295067 0  0.007534593095922887 1.760126887057542 0  -1.276272015520854 0.140425968067263 0  -0.7270478511000733 2.847016806985676 0  1.436331331726002 0.85725 0  -0.1770320080670663 1.927167796173981 0  0.7200726153501196 0.6345534912379586 0  -1.099983122078282 0.3577316115390257 0  0.2324759135153202 2.648405702327079 0  0.9054371869972004 1.582409569434113 0  0.5000672234640285 1.188708149930449 0  -0.340793734207542
[...]
<PointData  Vectors="phi"> 
<DataArray  type="Float64"  Name="phi"  NumberOfComponents="3" format="ascii">-1.2754029443148567e+00 3.0133230871294328e+00 1.5385043756642260e-04  -1.0160127648737656e+00 3.0328778801740922e-09 -9.0782232066500625e-06  1.0160127927438700e+00 -1.8239792174529305e-08 -1.0890056292344593e-05  1.2755065368742453e+00 3.0132980476386302e+00 1.1885673153235395e-04  -5.8179918749158603e-06 1.7265153372510351e-07 1.0160220797098574e+00  -4.6554300894428998e-04 2.6296671889090653e+00 -2.5012637708367758e-01  -1.0579569608930062e+00 1.5090297700785036e+00 -1.7222291280286775e-05  1.0580834980069267e+00 1.5090017572687529e+00 -2.4999655825694914e-05  -4.6590629320443104e-02 1.4558078315160548e+00 7.2475225348002026e-01  7.1842704575993888e-01 -1.6604233077190820e-07 7.1841675184015963e-01  6.8028309990001112e-01 2.2342003146505482e+00 5.1922223787381339e-01  -7.1842437688476324e-01 -3.4238535627719998e-07 7.1841895760945007e-01  -6.3794749016837327e-01 2.9162964910577061e+00 1.3169720885829139e-01  3.9407536224853057e-01 7.7963768404452527e-01 9.1641315619783670e-01  -1.0241907715332064e+00 7.5480034150662012e-01 -2.1556359694938651e-05  -7.4599555212423108e-01 2.0876954187321677e+00 5.8565985117788633e-01  -6.6047097420414902e-01 8.9299194061187170e-01 7.8706563723233847e-01  6.3766551182021347e-01 2.9158873631859170e+00 1.3049252014357235e-01  7.5546232114695011e-01 1.4707573397436653e+00 7.1569154896325848e-01  -3.5016305537354441e-04 2.0419327683718045e+00 2.3779489662611283e-01  -1.1651629374249182e+00 2.2585419410421936e+00 -8.4722035973763928e-06  1.0242096089598229e+00 7.5479088297175545e-01 -3.0576192960886046e-05  1.1654645632541236e+00 2.2584889141004982e+00 -5.2939004006123581e-05  -8.7219126885560161e-01 1.4704341625068702e+00 6.0481953195659588e-01  8.7112156711999000e-01 8.9624474234179552e-01 5.6876964171259969e-01  -3.9110129554448431e-01 4.0936294064161066e-01 9.2994209125506455e-01  1.0309898230294623e+00 1.8921539736982877e+00 3.9112089047981563e-01  3.4828320918825956e-01 1.8008681914933877e+00 5.8541462149620382e-01  -4.3131936405673843e-01 2.4000855702272665e+00 2.4701148185224522e-01  3.4582929059692852e-01 2.7519391375210374e+00 -8.9896619790054810e-02  9.3865688790968527e-01 -4.5106026603409983e-07 3.8880525320060544e-01  1.0232294221321638e+00 2.6280822100556223e+00 3.4644962302471832e-01  -1.0021317972873371e+00 3.0180884258510221e+00 2.4182526088199380e-01  -9.3865671041632603e-01 -2.9493186194972191e-07 3.8881441466042382e-01  -1.4169719095380159e-01 8.9405998904557815e-01 9.5734005205122674e-01  -9.8770304219988370e-01 2.5154280462303449e+00 3.9190152475929341e-01  -8.5553656415196755e-01 4.7165734790471364e-01 5.6799584883588439e-01  -3.2375884971147062e-01 1.8265204682986289e+00 5.4886379715888634e-01  -1.1024754617669321e+00 1.8844312929917619e+00 -2.3857328321983769e-05  -9.5727562317269599e-01 1.0236109112187854e+00 4.1261344026783348e-01  7.1405844306218780e-01 4.7577386623501400e-01 7.3638317349034732e-01  3.8881367010438450e-01 8.9998072839496462e-07 9.3866780593005128e-01  -4.8436085526632372e-01 1.3323560633688174e+00 8.5507126302071890e-01  6.4561036794329812e-02 4.5924780331552828e-01 9.8823780389937788e-01  2.0109265231892015e-01 1.1687573597805943e+00 9.2679390690241448e-01  3.5264995839130631e-01 2.3611524501550232e+00 1.9064559435957509e-01  1.0204519477934448e+00 3.7743804962094257e-01 -1.9586144471399055e-05  9.8249892443602460e-01 1.2858318080394358e+00 3.8207617155748308e-01  9.4909091023116288e-01 5.2669530051295044e-01 3.8923137318547307e-01  7.2789811679481187e-01 1.8652640301303320e+00 6.6077020058564795e-01  6.2309138340500247e-01 1.0986252916741406e+00 8.1072077577466650e-01  -1.0607262412311342e+00 2.1295331490091223e+00 3.6359442350767379e-01  -3.8880193234796345e-01 -2.2752376806798982e-07 9.3865651363520941e-01  -3.4651434685291121e-01 2.7522425638862718e+00 -8.9166652187532100e-02  1.0018036046514116e+00 3.0179031195303940e+00 2.4110352363687632e-01  6.4916938488740372e-01 2.5735053411290711e+00 3.3469047281619685e-01  -1.0323529045570199e+00 1.7009705355353337e+00 3.3574414244627515e-01  -1.0939162040821541e-01 2.3528614286742071e+00 1.5925728946069348e-02  -1.0359928492197401e+00 1.1320536731520623e+00 -2.4963129598597192e-05  -1.0204636458545975e+00 3.7744238040758094e-01 -2.4490896850446130e-05  1.0360568059561941e+00 1.1320361967075590e+00 -1.1806219032845081e-05  1.1027602978530715e+00 1.8843712627145248e+00 -4.8196489258898204e-05  1.2269343543595821e+00 2.6345988055098446e+00 -4.4661767822477756e-05  -1.2264382852820728e+00 2.6346862827906521e+00 1.7318108972886772e-06  -6.4735342619832814e-01 1.7434818716995026e+00 7.1366476578444460e-01  1.0666065991723219e+00 2.2605873539857373e+00 3.5884716349440310e-01  3.8678351977753567e-01 1.4877388018265234e+00 8.0594613647593649e-01  1.5330395235705752e-02 1.7616452191546059e+00 4.5939797864260590e-01  4.1306691399818352e-01 4.2471740215080028e-01 9.2148443875644515e-01  3.1770315741870936e-01 2.0668842799175926e+00 3.6813930233021963e-01  -3.1615945604022105e-01 2.0961708687091942e+00 3.4492193150733669e-01  -9.7236417251389151e-01 6.9436965092593939e-01 3.3557554295024949e-01  -1.0092450793434884e+00 1.3490817147356040e+00 3.0789715006785884e-01  -1.2443081720257387e-01 1.2123873761140114e+00 9.1697669571819318e-01  9.9671370798857917e-01 9.8348378725893837e-01 2.8397848180515289e-01  -7.4403619550722389e-01 1.1986179554476886e+00 7.2596904966111753e-01  8.6197321867751131e-01 2.6440358695748001e-01 5.4784087165100659e-01  1.8900172196014065e-01 2.4874073328349753e+00 -4.2555082315176296e-02  -6.8014961839987076e-01 2.6322030815569888e+00 3.2311541986955306e-01  -3.3729303360836094e-01 1.5762760990745941e+00 7.3627018600536576e-01  9.5853120827412108e-01 1.5901795360767070e+00 4.8771414562122162e-01  -7.3066458831271408e-01 2.3705438611264009e+00 4.7133571839758442e-01  6.6943405899741659e-01 7.9808258090102280e-01 7.7999808270868531e-01  -9.7161866472402036e-01 3.0812586764670286e-01 3.1396486006764202e-01  -6.4428370805910307e-01 5.6900185932454805e-01 7.9625524923120317e-01  -4.0019774846820255e-01 7.2205196083949719e-01 9.1676334491171241e-01  8.4189168234885980e-01 1.1846907508418751e+00 6.2556030605591773e-01  -8.5697348912407745e-01 8.0593720761424237e-01 5.8454358301831455e-01  -7.0290090314235631e-01 2.8924123141620911e-01 7.4094480186566036e-01  -9.0067336240342544e-01 1.8323997382400106e+00 5.7259818990821132e-01  -1.4729241613905711e-01 2.5494517744704714e-01 9.9348896380829022e-01  1.9804764861908053e-01 2.0638384450132602e-01 9.8837999200143400e-01  5.9700551803082202e-01 2.3204276116128250e-01 8.2499870668239339e-01  -4.1382456991791661e-01 1.0352775585569187e+00 9.0184573533859336e-01  8.5429655756461864e-01 2.4373450372586811e+00 4.5215134661133621e-01  8.1322084643792680e-01 2.7929680327245867e+00 3.0252152343091931e-01  4.8967522869310870e-01 2.8354472572553013e+00 2.2185497715984281e-02  1.6367174854520478e-01 1.6018141759614175e+00 6.2689152807343884e-01  5.1315547069640710e-01 2.0189864726193449e+00 5.5768801996167183e-01  1.0628187974596615e+00 1.6982478200147300e+00 1.9956810782104031e-01  9.1369325643032251e-01 2.0985263907446963e+00 5.2547644669961857e-01  -1.1880348460758914e+00 3.0211739069206058e+00 1.7254605480815852e-01  -1.1279946115836006e+00 2.7411665831057968e+00 2.5410578844199272e-01  1.1730468329932333e+00 2.8103323310981736e+00 2.0153688032693445e-01  9.8369466035554709e-01 2.6270253650967557e-01 2.7049994646399456e-01  1.4198355382156341e-01 8.9746403389550522e-01 9.5706641029508066e-01  -4.7625171760951462e-01 2.6478162699981356e+00 1.3354377574400217e-01  1.1631915416237906e+00 2.4576705801992609e+00 1.9704231850499537e-01  -1.5127273996008145e-01 6.2427189687184970e-01 9.7158283517455291e-01  -1.1338557663297739e+00 2.3564438347328918e+00 2.4566364739660718e-01  5.3822078572631893e-01 1.6926839884516121e+00 7.3296539796295890e-01  1.1332879914571732e+00 2.0713603721615752e+00 -2.0376594598822198e-05  4.6011211551070841e-01 2.6016707631375713e+00 1.4565269778840242e-01  -8.4477556281722199e-01 -7.2350042813014504e-09 5.6446288732094307e-01  -5.1367467495046970e-01 2.2400472670591234e+00 4.2839186591611750e-01  1.2199425360263183e-01 2.2441176745328910e+00 1.0450209791576236e-01  -8.0745953070404308e-01 2.9815571942267263e+00 2.1581369179840365e-01  -5.0078659840267636e-01 2.0154924240517573e+00 5.5255135179809867e-01  -1.0106683966299070e+00 8.9934849488673074e-01 2.0265594891141103e-01  -9.1923867578554264e-01 1.2444579881584743e+00 5.1622945802782483e-01  -1.6407015382935261e-01 1.9082504362329538e+00 3.8194881129499592e-01  -9.0151087195728052e-01 2.7379703605174419e+00 3.4126297485217622e-01  -1.6050863295714887e-01 1.6506382058077194e+00 5.8519677459478536e-01  -2.8818146881468798e-01 2.5296937120948790e+00 9.7849204364483904e-03  4.7461133892532481e-01 2.2599633452504824e+00 3.8234782801849365e-01  -6.8893311974221783e-01 1.4314393465741428e+00 7.6165054731019532e-01  8.1526027546378965e-01 6.7102634312032450e-01 6.3427823750839374e-01  -8.5263217804267943e-01 2.3573823952530179e-01 5.6094768259353889e-01  9.9560424637432543e-01 7.3479798633952831e-01 2.5407470840791119e-01  5.4676659724828891e-01 6.1051051274260693e-01 8.5785671784750273e-01  5.7467957746587361e-01 1.3385367923573426e+00 8.2519233055248375e-01  -5.1395221932763502e-01 2.0402724424048729e-01 8.7681833278518340e-01  -2.5451006574294249e-01 2.2529598996596745e+00 1.7703616602533304e-01  -1.0214539659778814e+00 5.6612554141170990e-01 -1.5421335808457986e-05  -2.4163049849228105e-01 1.3911225630696415e+00 8.3135547296420909e-01  2.5584730539196809e-01 5.9349667456200539e-01 9.5829271738406074e-01  1.0246662111610936e+00 1.4911247916167127e+00 2.8941769834005848e-01  1.0451859958785827e+00 1.3205958703811935e+00 -1.4856014405574086e-05  -9.0814101582633899e-01 2.2299548373197884e+00 5.0025779616132571e-01  8.9767973825807290e-01 1.3908860359193358e+00 5.6507208224813110e-01  -9.9647418543254951e-01 -6.9457510835695239e-07 1.9820651147823429e-01  4.0225073566550401e-01 1.0270148634452003e+00 9.0537345379529777e-01  1.6644229012083908e-01 1.3812877151501792e+00 8.1976130186614848e-01  -1.0831110390798788e+00 1.9202681588007191e+00 2.4335207489760941e-01  2.0593770488088423e-01 1.8795557768557827e+00 4.2716017178547311e-01  1.0214607169611414e+00 5.6611732230839207e-01 -2.7400271973816263e-05  1.1034701347637137e+00 2.0610782082493007e+00 2.3829642922319580e-01  -8.4551845654153845e-01 1.0299143703017024e+00 6.1267775660272350e-01  -1.0157312373836571e+00 1.1406060008153764e+00 2.2724539960104317e-01  -1.0187519002646543e+00 1.8876483796557461e-01 -3.3226498559490855e-05  9.4049945209885066e-01 1.0928426420501465e+00 4.5929064763243788e-01  4.0954359094163462e-01 2.1185325752875525e-01 9.2711227524840611e-01  -1.1328197196065304e+00 2.0714453913221922e+00 -3.1602389905924232e-05  8.5245127858583780e-01 4.7284215532028612e-01 5.7277410665491002e-01  1.0027787496840126e+00 4.5632865866108441e-01 1.9624227512694536e-01  9.2616697087547073e-01 7.2477928644891820e-01 4.5712792789856010e-01  3.7307876073208746e-01 1.2909956966561122e+00 8.8304027173045685e-01  9.1423185249271821e-01 1.7967774977813911e+00 5.6090564216326333e-01  -1.7767602878653317e-03 1.0483715402136600e+00 9.5286195592355971e-01  1.0210052692471558e+00 1.1750709735682121e+00 2.0705914528215652e-01  -1.0043608937577375e+00 4.7192645944705175e-01 1.8829415436587718e-01  5.9294532048455736e-02 6.9361860993039048e-01 9.7357928950721528e-01  -9.4962627651752018e-01 4.9578944069674175e-01 3.8595486565660886e-01  -6.0010341165478331e-01 1.0851849656901325e+00 8.2399822172046822e-01  -9.4909297788111502e-01 2.0262531620109434e+00 5.0928617569293810e-01  -1.2520783423354021e+00 2.8239373466045343e+00 5.1892198285824369e-05  7.6795849997542054e-01 1.0110744632366517e+00 6.9967540746165680e-01  6.3290835824727731e-01 2.7414344540805060e+00 2.2758653732542128e-01  -5.1744564000476334e-01 1.5223890870511709e+00 7.9965661227428086e-01  7.0543408543087871e-01 2.0534811401476820e+00 5.9868884646096099e-01  7.3389832785828379e-01 1.6698366585644933e+00 7.0620965146861481e-01  -1.8881965278072516e-01 2.6764160897795461e+00 -1.8927674370741768e-01  -5.9446492702291982e-03 2.4818020697233312e+00 -1.0605511825514664e-01  -1.1320453606060068e+00 2.1673327442073100e+00 1.7764935719563071e-01  9.9647561927585060e-01 -7.3329674141110074e-07 1.9820949036178373e-01  8.0711154941736385e-01 2.9812551811862034e+00 2.1463748504276556e-01  1.9820794898790292e-01 1.6662973220753288e-06 9.9649252717787318e-01  -1.9821653875666981e-01 5.3361466214592651e-07 9.9648287507266120e-01  5.6445641388909062e-01 1.4142374264252237e-07 8.4477757488754845e-01  1.8792113990258424e-01 2.6762209099426522e+00 -1.8977909547435573e-01  8.4477860774962521e-01 -1.3099769488359560e-07 5.6446234657159855e-01  1.1879594097379751e+00 3.0212663678794005e+00 1.7230552862066617e-01  -4.9013881511738344e-01 2.8357690476508375e+00 2.3106438992217267e-02  -5.6446368348957121e-01 -1.0544963343790039e-07 8.4477078230017077e-01  -6.9727399911623758e-02 2.1930596413702914e+00 1.2792420989013886e-01  1.0068002832912577e+00 2.8161202755614436e+00 3.0138657316835227e-01  4.9833779990543997e-01 2.4625104873538612e+00 2.7567984427825787e-01  6.6340995114334300e-01 2.4058759039774222e+00 4.3080670020940759e-01  8.3304409064826235e-01 2.6179523555118775e+00 3.8313126142277965e-01  3.5269157243192673e-01 1.6439456570801987e+00 6.9737137835090912e-01  -7.3812430208826829e-01 2.8071080218454201e+00 2.6410332906154971e-01  -3.3127966689960320e-01 1.8897887827163984e-01 9.5620750633106422e-01  -1.1760240295087658e+00 2.5513846533995834e+00 1.8570276383999498e-01  -9.4590887650038435e-01 1.6414670880142219e+00 5.1485399777423491e-01  -1.0436363568574276e+00 1.5321025519621398e+00 2.1149473581541964e-01  -1.0768600470082779e+00 1.6970352529604131e+00 -3.4387546742283379e-05  -8.1188973319308766e-01 1.6496644428337157e+00 6.6223624586696750e-01  -5.6944016903995520e-01 3.9098026822253257e-01 8.4501572131715008e-01  1.2527082596851915e+00 2.8238170466081458e+00 -1.4626495042274568e-05  -1.0291027623598454e+00 9.4344460466643210e-01 -1.7190817498452934e-05  1.0187372271122814e+00 1.8876314147455567e-01 -2.9255922054577442e-05  1.0770743147659871e+00 1.6969930668704643e+00 -1.8701633680939379e-05  1.0291402031776846e+00 9.4343121178664879e-01 -4.8618449498255621e-05  -1.0451055041530437e+00 1.3206157109581727e+00 -3.1884984129660741e-05  1.1973534731423723e+00 2.4461604348674597e+00 -2.1439152397655885e-05  -1.1969057482905798e+00 2.4462383857291363e+00 8.4504571070738523e-07  7.4179746658817414e-01 2.8667433579258655e-01 7.0258723075888185e-01  -1.0145836436572240e+00 1.8705778533744275e+00 4.2092289939732980e-01  -7.8752403123762471e-01 6.3422827672743853e-01 6.6608689482580397e-01  -3.2670007866004569e-01 1.2139226006556125e+00 9.0582535162212741e-01  -7.3813717911027765e-01 1.9034913720968925e+00 6.4771243478169360e-01  -4.4677890486327870e-01 1.7382988326827877e+00 6.8485690515976727e-01  -5.7313950296005522e-01 2.4103999826399551e+00 3.7403834649609519e-01  5.3198580578076704e-01 8.9852765944570789e-01 8.6082512142101453e-01  1.8212038923390286e-01 2.1120707579148026e+00 2.3419673615439482e-01  5.1658090258015521e-01 1.8568870175851353e+00 6.4829285357729560e-01  1.0602149871401885e+00 2.4461953532600149e+00 3.5341501933744862e-01  1.1401446635973267e+00 2.2368369727651198e+00 1.8667169746440496e-01  1.0883343730314405e+00 1.8820649698917480e+00 1.8968588446809717e-01  -2.3120045850550147e-01 1.0564529734544490e+00 9.3849056205339232e-01  7.1692023183708198e-01 1.2483836475853043e+00 7.4809794334637159e-01  5.6863318372732308e-01 1.5208445642632396e+00 7.9288540451508061e-01  -2.0518743671860165e-01 4.3906684471823743e-01 9.7525774458518710e-01  -9.9556931109311941e-01 1.5126297741328041e+00 3.9154533655698998e-01  -1.0363331270229927e+00 2.3067496395876339e+00 3.9343943498839157e-01  -1.0107625189483851e+00 6.4875557525896888e-01 1.6238138717631614e-01  4.2059415150860244e-02 1.9036492639374663e+00 3.4853890260801590e-01  5.7418278939703205e-01 4.3548207752162110e-01 8.4233265137260693e-01  2.3890634234954775e-01 4.1417560783887392e-01 9.7057253031667212e-01  1.1575960872362845e+00 2.6338491531017461e+00 2.2679562913071072e-01  8.5654028488912104e-01 2.2672154073649824e+00 5.0804591769787477e-01  -5.3646594349334575e-01 2.5428666670077074e+00 2.6291443192040714e-01  -5.6303483875219029e-01 1.8839328082728055e+00 6.5064140726246900e-01  1.0354920615922383e+00 2.0668037099073575e+00 4.0221597328756925e-01  -4.7517434589731374e-03 1.3271545745848761e+00 8.4495767474340056e-01  3.3910415799558691e-01 2.2143686503989901e+00 2.8084889862404144e-01  3.5803666836010117e-01 1.9470373085378809e+00 4.8980619170639950e-01  1.8646191235998120e-02 1.8095595464525663e-01 1.0070825433690396e+00  -8.3179369628255484e-01 2.5890901141185974e+00 3.9568102603143651e-01  1.7626352477630364e-01 1.7382528291205392e+00 5.2199083041363437e-01  3.2936383938554120e-01 2.4962386101802911e+00 7.3487364599214039e-02  -3.1584027697752681e-01 5.7174906991663932e-01 9.4647159906100364e-01  -4.8752744801466319e-01 5.6758504926442088e-01 8.8775644982456914e-01  6.1092482826280416e-02 2.3611759318063616e+00 -4.5816334374152983e-03  -1.7783157477072090e-01 2.1065870145790258e+00 2.3579346031794018e-01  -9.0282459383284741e-01 6.3453461104248632e-01 4.9748856081771353e-01  -9.6787798273457504e-01 8.6087643394711155e-01 3.6587795654682032e-01  -3.7776919614914195e-01 2.2466112581633682e+00 2.9593087680028735e-01  -3.1526645154888239e-01 1.9595226009249651e+00 4.4480007060497556e-01  -1.0096922924129279e+00 2.8314688930269138e-01 1.4527019423556103e-01  7.8733045631589904e-01 1.3570303939597192e-01 6.4537007524385170e-01  -6.4301337764574007e-01 1.3889154610420135e-01 7.8856305645063196e-01  -1.0742650818887081e+00 1.7590431911083404e+00 1.6961458994923020e-01  1.0348497854681409e+00 1.3500565732630463e+00 1.7923856529079962e-01  -4.9848033642119327e-01 8.7439567437443388e-01 8.7624393418551783e-01  -5.9443142925869763e-01 7.3421056771574922e-01 8.3001460718418474e-01  7.4177840997075115e-03 1.6308796851635836e+00 5.6601668818726514e-01  -9.7418735767454367e-01 1.3924722273962889e-01 2.9536915059015362e-01  -6.0203888305108755e-01 2.7259321726380588e+00 2.1141293171623748e-01  1.0186428436412407e+00 8.4930259765372074e-01 1.3666186447064632e-01  -1.7543157540913598e-01 1.7818221565204970e+00 4.8691052626414855e-01  6.8414679011102253e-01 6.3462380687843467e-01 7.6640236847789234e-01  -9.1229605921680668e-01 3.5515096617909669e-01 4.6296570939495008e-01  2.2278514288078488e-01 2.3696048016149920e+00 6.7175390937545446e-02  8.5566305892721628e-01 1.5810285314419927e+00 6.2632666425448869e-01  5.0281164991557592e-01 1.1947852036707154e+00 8.6480478266809691e-01  -3.1343745969435366e-01 2.4032589523038768e+00 1.2131367006574197e-01  8.4307309559670540e-01 1.9645515426025761e+00 5.9337730712504277e-01  9.9813673636075184e-01 1.7386771263831038e+00 4.3358519751933500e-01  -7.4453682986909875e-01 4.5606878613589708e-01 7.0592209988034826e-01  2.1290732067976717e-01 7.5084289580868813e-01 9.5682916272899876e-01  -6.0033027075271295e-01 2.1465954638438096e+00 5.3403939142026313e-01  -6.1497094264350483e-01 1.2469175545250437e+00 8.1281100717922283e-01  -7.3106623961694950e-01 1.0338933704210511e+00 7.3388022272092635e-01  -7.9867290615652042e-01 1.3451107734882983e+00 6.7981916030009260e-01  9.4613837422952163e-01 9.3635001664233641e-01 4.3069228001388549e-01  -9.7690415766765271e-01 1.1784148982660057e+00 3.8029663950480774e-01  8.9771928082048769e-01 1.2498693875558013e-01 4.7953353499918450e-01  9.1734567454423244e-01 3.8360476216924150e-01 4.5415547195112027e-01  -6.5760627047827469e-01 1.5883429441895152e+00 7.5351387719189611e-01  9.7336598119168716e-01 1.4426435208967023e+00 4.3344204321201951e-01  -9.1047949857455246e-01 2.38704346