<?xml version="1.0"?>
<VTKFile type="UnstructuredGrid"  version="0.1"  >
<UnstructuredGrid>
<Piece  NumberOfPoints="758" NumberOfCells="1386">
<Points>
<DataArray  type="Float64"  NumberOfComponents="3"  format="ascii">-1.570796326794897 3.048 0  -1.570796326794897 0 0  1.570796326794897 0 0  1.570796326794897 3.048 0  0 0 0  0 3.048 0  -1.570796326794897 1.524 0  1.570796326794897 1.524 0  -0.04609926118424437 1.524 0  0.7853981633974483 0 0  0.7623485328053261 2.262242601661362 0  -0.7853981633974483 0 0  -0.7853981633974483 3.048 0  0.392699081698724 0.7745759241961347 0  -1.570796326794897 0.762 0  -0.8084477939895706 2.0955 0  -0.68277245543452 0.8915343570675713 0  0.7853981633974483 3.048 0  0.778743707341909 1.468410948960538 0  2.780093748954961e-16 2.285302774973185 0  -1.570796326794897 2.286 0  1.570796326794897 0.762 0  1.570796326794897 2.286 0  -0.9375370967763674 1.47348297960658 0  0.9831575747762593 0.9003629142671278 0  -0.3926990816987241 0.4064697549061488 0  1.177419588818055 1.905 0  0.3692901340097942 1.880893989147954 0  -0.4920225169641509 2.564371687128368 0  0.3926990816987241 3.048 0  1.178097245096172 0 0  1.155705348811136 2.643920532523289 0  -1.178097245096172 3.048 0  -1.178097245096172 0 0  -0.1391296372266528 0.8873724190154949 0  -1.10527745318919 2.528282743051346 0  -0.9817477042468103 0.4742759268549471 0  -0.3416666987802651 1.923944646262223 0  -1.570796326794897 1.905 0  -1.156555306160469 1.030861936336814 0  0.7648449098493205 0.4764142032227 0  0.3926990816987241 0 0  -0.4820376416180818 1.326151321396512 0  0.06374421723344185 0.4545169930886408 0  0.1972735722393064 1.163324878565267 0  0.3900417218314142 2.566922767651637 0  1.570796326794897 0.381 0  1.188877612935585 1.295195418509834 0  1.179914028402171 0.5308585702661928 0  0.7660075594126428 1.865233039449035 0  0.6330293131838399 1.095171663968746 0  -1.201232463242587 2.144287146570887 0  -0.3926990816987241 0 0  -0.3926990816987241 3.048 0  1.178097245096172 3.048 0  0.7684409382397209 2.649499271873753 0  -1.236954997304436 1.7145 0  -0.1088573452899617 2.666651387486592 0  -1.570796326794897 1.143 0  -1.570796326794897 0.381 0  1.570796326794897 1.143 0  1.570796326794897 1.905 0  1.570796326794897 2.667 0  -1.570796326794897 2.667 0  -0.6730839067294777 1.743003792473746 0  1.199831389396789 2.275437921225198 0  0.3936837537618041 1.495643752599615 0  0.01539369169800942 1.928544709491661 0  0.4156551272669651 0.4219033286010089 0  0.3401546043708642 2.225103550856524 0  -0.3379897306391274 2.262671266279809 0  -1.23624174049596 0.7000907110925838 0  -1.265224057170889 1.360131453617764 0  -0.1224339018241312 1.210043725539656 0  1.289286200625578 0.9918698881707442 0  -0.7751142346211329 1.197848666814478 0  1.003546186550495 0.2660297686099683 0  0.1963495408493621 2.808538634159524 0  -0.8079023568959116 2.703551618159924 0  -0.3480226984353056 1.610059855391589 0  1.075147893506229 1.598068412087719 0  -0.8290627893979112 2.399544545867518 0  0.6965048925255637 0.7972100472372819 0  -1.257765094876752 0.3107645483825858 0  -0.6724835324263325 0.5684215760013651 0  -0.3995059642389676 0.7173610149075536 0  0.9136951972244611 1.187564504803626 0  -0.964259350608907 0.8095514380783081 0  -0.7565990314517038 0.2897049735129544 0  -0.9603859887840651 1.834914433810327 0  -0.1457055965762301 0.2521630699436873 0  0.1963495408493621 0.2041911848053476 0  0.6241974196550791 0.231695999252114 0  -0.4098815011312292 1.029160072548571 0  0.9592800715482012 2.452820690856482 0  0.9648684169153161 2.840751931000357 0  0.5890486225480862 3.048 0  0.164631037784102 1.698913854044779 0  0.5664480837073581 2.070920238540226 0  1.374107957806476 1.7145 0  0.9861079629544779 2.102471438422718 0  -1.374446785945534 3.048 0  -1.288827800789186 2.762781313597598 0  1.353232957571468 2.835634774483438 0  1.302158670506274 0.2650078124691045 0  0.1394669809465775 0.8907702620243092 0  -0.5631487221059602 2.830992231257464 0  1.372837635547072 2.483038902756259 0  -0.1493395228831287 0.618617259260858 0  -1.32327048447753 2.378769394323546 0  0.56080204725298 1.699622905297025 0  1.570796326794897 2.0955 0  0.5403456747786348 2.786446773498672 0  -0.9817477042468103 0 0  -0.5847039960246873 2.326882432521036 0  0.1225428891326576 2.526494255738436 0  -0.9817477042468103 3.048 0  -0.5522901559753841 2.071668786267058 0  -1.370864794258017 0.9075071715671403 0  -1.043891045637083 1.250611220450313 0  -0.1652643923634778 2.09141301924679 0  -1.044446740946883 2.764982067459552 0  -0.1610370079820225 1.763280243096074 0  -0.3136912237752232 2.810498886211121 0  0.5400974078002052 2.370472734822523 0  -0.7009161718414544 1.427243880175582 0  0.902907438200502 0.6735032943420574 0  -0.9879196222361604 0.2371379634274736 0  1.319268546233604 0.7412771512308228 0  0.5578373583610097 0.608241627784878 0  0.5756483102040615 1.332636919938113 0  -0.5281701577409 0.2032348774530744 0  -0.266729509930448 2.489223923247521 0  -1.570796326794897 0.5715 0  -0.2430656531629531 1.405631921096758 0  0.253622337931223 0.5884397663452474 0  1.284044721043478 1.50372037617638 0  1.570796326794897 1.3335 0  -0.9904333867980613 2.235882060371517 0  0.9871146764618406 1.395690276854986 0  -1.374446785945534 0 0  0.3981951765262902 1.020833864419675 0  0.1670583512016766 1.405384478716078 0  -1.330327693484763 1.938638984813805 0  0.2106653067452682 2.040805097078886 0  1.570796326794897 0.5715 0  1.334822181490566 2.081373939821734 0  -0.9303227889097604 1.033236710715967 0  -1.34639228476592 1.150776798768373 0  -1.570796326794897 0.1905 0  1.106697207481837 1.099709897393925 0  0.4137866939027022 0.2104288000383385 0  -1.570796326794897 2.0955 0  0.9761377489246634 0.4754251272674608 0  1.377108465632662 0.4605024587280874 0  1.108114944719677 0.7297638044096917 0  0.3695908229138113 1.285681859811955 0  0.9799112840676307 1.800306505551499 0  -0.001696842075803034 1.042028929293442 0  1.366537356420357 1.185723700290463 0  -1.385029840108318 0.47625 0  0.05842649915411911 0.6874537157920781 0  -1.183268988745763 0.4997334438341218 0  -0.6073502281622543 1.081347079085406 0  -1.026941765261019 2.031536576622642 0  -1.570796326794897 2.8575 0  0.8159726599830506 1.011928543199529 0  0.7652782693277244 2.849245002237192 0  -0.5252326280373281 1.520125074885265 0  0.7648326174724897 2.063743853392348 0  0.757099741434616 1.666331708950521 0  -0.1963495408493621 3.048 0  -0.005410422648647092 2.843333256403111 0  -1.395368347654653 2.19075 0  1.374446785945534 0 0  0.9817477042468103 3.048 0  0.1963495408493621 0 0  -0.1963495408493621 0 0  0.5890486225480862 0 0  0.1963495408493621 3.048 0  0.9817477042468103 0 0  1.374446785945534 3.048 0  -0.5890486225480862 3.048 0  -0.5890486225480862 0 0  -0.06865319188571758 2.471928549109083 0  1.159049337209348 2.838090892449816 0  0.5817075150535711 2.596909954318943 0  0.7656515661107315 2.455866896253367 0  0.9620790410056582 2.647119292933887 0  0.3676829480103987 1.68739481709134 0  -0.8886101495223063 2.878912500124773 0  -0.3317793704126089 0.1873756770788371 0  -1.383208664444332 2.577695923010364 0  -1.043597917648523 1.648216005744782 0  -1.362178343413552 1.546177620526679 0  -1.570796326794897 1.7145 0  -0.8462722504471433 1.648434957877788 0  -0.588076822054871 0.3899352838051667 0  1.570796326794897 2.8575 0  -1.570796326794897 0.9525 0  1.570796326794897 0.1905 0  1.570796326794897 1.7145 0  1.570796326794897 0.9525 0  -1.570796326794897 1.3335 0  1.570796326794897 2.4765 0  -1.570796326794897 2.4765 0  0.8103777117362174 0.287468585434799 0  -1.145334531235929 1.881885620422454 0  -0.8620560674467429 0.6361265362229395 0  -0.321688879263093 1.207848147265888 0  -0.7798551871678058 1.904240998338365 0  -0.4724954359209014 1.769587110195458 0  -0.667402576232105 2.495985359319255 0  0.5365063314111709 0.8945566719544227 0  0.1855702280441107 2.342745654422604 0  0.55510120733165 1.88540118775351 0  1.188295809121239 2.460939894898248 0  1.38587897409014 2.260870763688798 0  1.383978812419919 1.901097375082534 0  -0.2265735189171196 1.049795314962436 0  0.7387890113368257 1.246392780742437 0  0.5763234466275948 1.516457524623135 0  -0.203279258075353 0.4348372558382012 0  -1.179202350299698 1.523245956950107 0  -1.151844216720993 2.318990544544152 0  -1.410806081599612 0.6547540757597369 0  0.04190096621848406 2.108399609871347 0  0.5925649981629265 0.4343292987553075 0  0.2371113691258682 0.4102816185532077 0  1.334103818253725 2.657728219912091 0  0.9405077369493808 2.275181409651143 0  -0.633962040105568 2.669303984283053 0  -0.6045614816381242 1.904349918307267 0  1.159697673803787 2.079238591118184 0  -0.004643801590645341 1.347662554528907 0  0.3691400131247499 2.395423267764724 0  0.3855005143298051 2.055603978165229 0  0.01839821075864462 0.1788084577298442 0  -0.9568120219060965 2.61629404172056 0  0.1783135820912846 1.871116340262054 0  0.3649950158263953 2.745288921627024 0  -0.3142054567155264 0.5671999812317062 0  -0.4933549623779417 0.564740705097546 0  0.06092775470575962 2.685867440722903 0  -0.1801827362748675 2.337517890002858 0  -1.063355415037434 0.6386189748554 0  -1.205242865599393 0.8676070232612285 0  -0.4176020549597784 2.412196127179313 0  -0.3347051678178828 2.093252344225509 0  -1.427772711006951 0.2857500000000001 0  0.8835729338221293 0.1362887052191026 0  -0.6831011505337878 0.1389086130988801 0  -1.403875662049666 1.77648180985222 0  1.394165436236593 1.362588987767805 0  -0.5007942298153729 0.8700626692351643 0  -0.6093220848169366 0.7321530406295067 0  0.007534593095922887 1.760126887057542 0  -1.276272015520854 0.140425968067263 0  -0.7270478511000733 2.847016806985676 0  1.436331331726002 0.85725 0  -0.1770320080670663 1.927167796173981 0  0.7200726153501196 0.6345534912379586 0  -1.099983122078282 0.3577316115390257 0  0.2324759135153202 2.648405702327079 0  0.9054371869972004 1.582409569434113 0  0.5000672234640285 1.188708149930449 0  -0.340793734207542
[...]
<PointData  Vectors="phi"> 
<DataArray  type="Float64"  Name="phi"  NumberOfComponents="3" format="ascii">-1.1863768036005340e+00 3.0383642327201508e+00 6.0665781129016615e-04  -1.0160097979762881e+00 1.0709018705279004e-07 -9.7041302533655179e-06  1.0160099153989539e+00 9.1412982748664510e-08 -1.1533394054580944e-05  1.1864140196225557e+00 3.0383452763635392e+00 5.0916473626512438e-04  -6.4824513164953595e-06 2.2798923378371320e-06 1.0160259009118782e+00  -1.3269449945485954e-03 2.4718827129776364e+00 -6.3861119811421985e-01  -1.0852417480390215e+00 1.5111518628089617e+00 -1.7019929030540625e-05  1.0858702347966445e+00 1.5110515106526059e+00 -2.7027293504824307e-05  -4.7202695417748707e-02 1.2829301300126030e+00 3.2092179555751182e-01  7.1842691519526636e-01 -2.8988550742170861e-07 7.1841628144035896e-01  5.8318828659967259e-01 2.1479509159721371e+00 2.4108383093708213e-01  -7.1842432985250226e-01 5.3802655833989724e-07 7.1841806056802204e-01  -5.7714290030675064e-01 2.8021952452076695e+00 -1.9309290142518146e-01  3.8535590597310443e-01 7.6867943509290471e-01 8.6982028814192236e-01  -1.0220408141418362e+00 7.5665087000080211e-01 -2.2380031384536933e-05  -6.3574489333062856e-01 2.0247689154017903e+00 3.5253293434609251e-01  -6.6131221076636870e-01 8.9500142083405043e-01 7.8169768871059564e-01  5.7617583798781591e-01 2.8013998817159629e+00 -1.9529812961333765e-01  6.9172614921958409e-01 1.4581599150671027e+00 6.1400177072286632e-01  -9.6157341792768895e-04 1.8869550175513501e+00 -1.4577535813974854e-01  -1.1755736373636350e+00 2.2705083003197322e+00 6.4430223199039524e-05  1.0221135327259321e+00 7.5662454046509220e-01 -3.0464521600349174e-05  1.1762773697487536e+00 2.2703497714706948e+00 -8.4059540711190181e-05  -8.4429659733007900e-01 1.4736314910561852e+00 5.6891084116600987e-01  8.7792910661266421e-01 8.9876813418601564e-01 5.7125540577302447e-01  -3.9545394027166098e-01 4.0851436533881680e-01 9.3704555502287268e-01  1.0031723462859179e+00 1.8984705331163956e+00 3.6507565086442201e-01  3.2734928072039382e-01 1.6603557013924943e+00 2.2499385640340111e-01  -3.9947701942835040e-01 2.2703711946023692e+00 -1.0030642338542961e-01  3.2304903706523330e-01 2.6165029168936380e+00 -4.4620906213166861e-01  9.3865800978992553e-01 -4.1107508954140575e-07 3.8880540829544641e-01  8.8622185404543841e-01 2.6047955315068378e+00 2.0446946776045141e-01  -8.5813716062957657e-01 2.9712548863048696e+00 3.9460388830134252e-02  -9.3865756175770321e-01 -1.1498042660947436e-07 3.8881451953874557e-01  -1.3865686646627273e-01 8.0755645989110314e-01 7.4664660077272216e-01  -8.5462240297885428e-01 2.4892519095755419e+00 2.4310431996050055e-01  -8.5500570111721896e-01 4.7288084051101020e-01 5.6791208822154260e-01  -3.0819378760142979e-01 1.6833062515711059e+00 1.8454732725151837e-01  -1.1366721277490075e+00 1.8890689517221204e+00 -2.7690253016099738e-05  -9.6452944513470018e-01 1.0261528396314092e+00 4.1387232754723396e-01  7.1629861422224617e-01 4.7671991323115498e-01 7.3850548081188083e-01  3.8881461268540057e-01 1.5598346968549084e-06 9.3866883977489901e-01  -4.2990825878205557e-01 1.2586246421122851e+00 6.0968134810780128e-01  6.5147715675138537e-02 4.5439608549227167e-01 9.8481830606339937e-01  1.9221483544106380e-01 1.0300812189324398e+00 5.8277643327984552e-01  3.3288856673113781e-01 2.2239919472937362e+00 -1.6788317705143510e-01  1.0192010344710711e+00 3.7837588329705474e-01 -1.9498499786108683e-05  9.9766811018247459e-01 1.2889917205260508e+00 3.8254148637820029e-01  9.4774518645862582e-01 5.2806519238658123e-01 3.8891543244650068e-01  6.2437056106353983e-01 1.8116433929321893e+00 4.4726608924984163e-01  5.9507386838060738e-01 1.0915340301279786e+00 7.4898954968768661e-01  -1.0025754696586893e+00 2.1348903962634673e+00 3.2217069355617051e-01  -3.8880243736882314e-01 -1.4665458085647408e-07 9.3866113408504126e-01  -3.2497755016574170e-01 2.6171046793957253e+00 -4.4478488012771850e-01  8.5750254915719604e-01 2.9705109488320032e+00 3.6885315732666825e-02  5.6941892420770579e-01 2.4704019138092406e+00 2.6866857067570343e-02  -1.0417791029026700e+00 1.7063881310233644e+00 3.2909032722423942e-01  -1.0933075801162118e-01 2.2011727518986546e+00 -3.6308101532043324e-01  -1.0399232131462068e+00 1.1345653895244630e+00 -2.2584692386678152e-05  -1.0192016756515421e+00 3.7838869803228431e-01 -2.4672322017261933e-05  1.0402234766623784e+00 1.1345120296451907e+00 -1.3513532498093186e-05  1.1373710619189530e+00 1.8889357635583941e+00 -5.1192282955390923e-05  1.1929004688112901e+00 2.6545960296066005e+00 -8.5924109643008227e-05  -1.1920832767664791e+00 2.6547153455950179e+00 4.6042218300946415e-05  -5.5681625041994331e-01 1.6763467184331604e+00 4.7324030008568774e-01  9.8544562676975545e-01 2.2630188570697332e+00 3.0087233129811003e-01  3.5158784687464345e-01 1.3619746738048872e+00 4.6770214968222129e-01  1.4792117165948132e-02 1.6023878184835636e+00 7.0455764287541134e-02  4.1768649411603120e-01 4.2401754838506711e-01 9.2867628815437853e-01  3.0380153859776282e-01 1.9244608671910799e+00 3.2315965042007881e-03  -3.0339379007612644e-01 1.9542384039793237e+00 -1.9240199485195720e-02  -9.7127368915791767e-01 6.9613396438930686e-01 3.3540034512205363e-01  -1.0269497485025048e+00 1.3519571167270081e+00 3.0824062120780221e-01  -1.2257187471267282e-01 1.0483706895873337e+00 5.3170162462366499e-01  9.9967501245643264e-01 9.8580792737682588e-01 2.8421070414771554e-01  -7.2356773940081032e-01 1.1995233372222196e+00 6.9113866424215165e-01  8.6132525904593316e-01 2.6506763662270277e-01 5.4753389129606733e-01  1.8321563897942242e-01 2.3403685178150884e+00 -4.1569101429106758e-01  -5.9528353200756978e-01 2.5331414453624150e+00 2.2051591699447474e-02  -3.1564981598921776e-01 1.4349520650323691e+00 3.7609109631266108e-01  9.4571976714640149e-01 1.5956401735572454e+00 4.6791358999929544e-01  -6.2484914860777407e-01 2.2904687661132570e+00 2.0420425355036753e-01  6.7496473555975711e-01 8.0007559362636005e-01 7.8256528836545258e-01  -9.7043583919513920e-01 3.0892336445040885e-01 3.1369302391896015e-01  -6.4953422202940059e-01 5.6989537599885032e-01 8.0157135994552164e-01  -3.9656206162870616e-01 7.1648437493635520e-01 8.9229382020694714e-01  8.4266345344743443e-01 1.1889638170732952e+00 6.1804537160759632e-01  -8.6187475164846572e-01 8.0812128921259840e-01 5.8684657479925861e-01  -7.0349312576789680e-01 2.8973195810278263e-01 7.4143919603144137e-01  -8.1889555473618636e-01 1.8241345076565199e+00 4.7867528167554912e-01  -1.4847855151400405e-01 2.5351444434414078e-01 9.9672151764794215e-01  1.9922614456230806e-01 2.0540432280087501e-01 9.9085003486595935e-01  5.9819432723268195e-01 2.3218764196878319e-01 8.2609470987474021e-01  -3.8451373993611399e-01 9.9066496987752350e-01 7.4577986051226819e-01  7.2734799617131962e-01 2.3823835422878394e+00 2.3438735146042414e-01  7.0257691281857115e-01 2.7126804889081098e+00 3.3279172797720295e-02  4.5131881850834521e-01 2.7083391004370703e+00 -3.2173684320974644e-01  1.6104670924952846e-01 1.4414852353051202e+00 2.3873175663070523e-01  4.5622207694958150e-01 1.9037905810816549e+00 2.3319969221462750e-01  1.0903301840539334e+00 1.7018927617283455e+00 1.9847277259129462e-01  8.0178860044403899e-01 2.0769344558209579e+00 3.8915523663486717e-01  -1.0411395631305809e+00 3.0248033264880729e+00 1.0465906062394061e-01  -1.0010558764831172e+00 2.7392397940590554e+00 1.7428037536845134e-01  1.0530290839414280e+00 2.8166458489051767e+00 1.4710652387629983e-01  9.8263261417096359e-01 2.6337135866608641e-01 2.7028927184584262e-01  1.3851808820695424e-01 8.0978678563003836e-01 7.4382937691979323e-01  -4.3684303958328186e-01 2.5220508919974987e+00 -2.0832144303708763e-01  1.1105673314932472e+00 2.4705842102485414e+00 1.7938940504240383e-01  -1.4983693604003534e-01 6.0755565598384298e-01 9.2481491868026822e-01  -1.0808365947287388e+00 2.3667760914289686e+00 2.2150551193259663e-01  4.6930228265807550e-01 1.5969150293300467e+00 4.4055538918198128e-01  1.1592057823130932e+00 2.0792442130858717e+00 -2.2715925003751694e-05  4.2217716575764580e-01 2.4743066503490474e+00 -1.9886110302457038e-01  -8.4477544204032162e-01 1.2447651764638686e-07 5.6446288308056536e-01  -4.6135849188743816e-01 2.1214871489377067e+00 9.8225328980577564e-02  1.2043756176911717e-01 2.0924110021178861e+00 -2.7457198880750511e-01  -7.0810341040847524e-01 2.8921331659295517e+00 -7.0021812851811360e-02  -4.4768246267654266e-01 1.8983040219735468e+00 2.2540865788465766e-01  -1.0100942718617065e+00 9.0153282931257184e-01 2.0252889046892017e-01  -9.2853192367601367e-01 1.2486049779051072e+00 5.1471150625562045e-01  -1.6285325212353954e-01 1.7548509026494430e+00 1.3647970547661101e-03  -7.7078341534870132e-01 2.6799886971603781e+00 1.1667931351373399e-01  -1.5901036521352263e-01 1.4918071737082252e+00 1.9865355739334867e-01  -2.7460255905241993e-01 2.3897279991887186e+00 -3.5307544412555047e-01  4.3193762933272700e-01 2.1350659122458615e+00 4.2360158353524038e-02  -6.2041909075994206e-01 1.4076545909650169e+00 6.2779088160326324e-01  8.1841151246180721e-01 6.7276604642967297e-01 6.3634130016595292e-01  -8.5208001721482618e-01 2.3631870080638728e-01 5.6066373023772431e-01  9.9426684191859982e-01 7.3661726639052538e-01 2.5388725489386854e-01  5.5288663502882418e-01 6.1099161540630076e-01 8.6441100727522413e-01  5.1134611494075044e-01 1.2937730450190905e+00 6.4127423840023845e-01  -5.1537474163498365e-01 2.0393492717112005e-01 8.7832715154764462e-01  -2.4762380092468167e-01 2.1082272192905647e+00 -1.9208959573283846e-01  -1.0200350632351156e+00 5.6752778565897999e-01 -1.5158172027002274e-05  -2.3250660580648641e-01 1.2334590111212418e+00 4.4961457953284756e-01  2.5575825742010821e-01 5.8681139259785020e-01 9.4100084628744030e-01  1.0462411404774807e+00 1.4943482383713997e+00 2.8878886188244152e-01  1.0605893522900887e+00 1.3228757395544501e+00 -1.5873210086241015e-05  -7.8595978390479659e-01 2.1995973191882263e+00 3.4084725074294359e-01  8.9030963395958340e-01 1.3958364632000115e+00 5.4917013901564649e-01  -9.9647537762791627e-01 -5.7062110694579339e-07 1.9820676606850834e-01  3.7376390682929450e-01 9.8042670441881541e-01 7.4577054828655154e-01  1.6369831276678551e-01 1.2104699793623142e+00 4.2075573267333838e-01  -1.0919623983475255e+00 1.9271221258814717e+00 2.3748356785766503e-01  2.0186321301895815e-01 1.7273708663431191e+00 4.8615131273997421e-02  1.0200625312555294e+00 5.6750686681309370e-01 -2.7640581581231571e-05  1.0979594096693785e+00 2.0697612530801344e+00 2.2908314597432350e-01  -8.5334335600153111e-01 1.0332948321051101e+00 6.1388073799319998e-01  -1.0230999152746303e+00 1.1430910655894209e+00 2.2750180320312760e-01  -1.0178938921015355e+00 1.8923346869849092e-01 -3.3422433813896385e-05  9.5083661128186159e-01 1.0957454245697846e+00 4.6089720083146579e-01  4.1136504879739849e-01 2.1146280629104700e-01 9.2957348605105949e-01  -1.1583287975751855e+00 2.0793642009752822e+00 -2.9126443065645460e-05  8.5203296594765610e-01 4.7406764430746295e-01 5.7274350027294518e-01  1.0014213313948019e+00 4.5747556767143960e-01 1.9606960509032287e-01  9.2682768324842524e-01 7.2666506094813610e-01 4.5747386803100237e-01  3.3822040581161200e-01 1.1844074568530167e+00 5.7994129378748693e-01  8.4261510456221844e-01 1.7927121405506685e+00 4.8232287527383899e-01  -2.0695741674095509e-03 9.0758110914473245e-01 6.2572402808047067e-01  1.0298686187270942e+00 1.1775212681150884e+00 2.0729658685599886e-01  -1.0029742885421062e+00 4.7311956791333037e-01 1.8812728758889516e-01  5.8277625456049885e-02 6.5435099486873016e-01 8.7429020046942219e-01  -9.4820682511071952e-01 4.9708615223360564e-01 3.8560964168739131e-01  -5.7124692135099320e-01 1.0759651278618196e+00 7.5607721520142790e-01  -8.5452042406560069e-01 2.0168322363666005e+00 4.1028790301962004e-01  -1.1915154028372090e+00 2.8469719561861191e+00 1.6820138471212455e-04  7.7080187731885674e-01 1.0145443738918909e+00 6.9619780359919969e-01  5.6361837090259270e-01 2.6316922368187088e+00 -9.0973291294138656e-02  -4.5319675331821518e-01 1.4348493243109217e+00 5.2292278520901669e-01  6.0156432649697855e-01 1.9817478874669747e+00 3.4793869749505513e-01  6.4191402992754565e-01 1.6342399662880940e+00 5.3541646209603921e-01  -1.8206269370588773e-01 2.5311817756182577e+00 -5.5981335762317630e-01  -6.7472155649580630e-03 2.3271038582752697e+00 -4.8899433051598540e-01  -1.1288524976894052e+00 2.1776393342308662e+00 1.7216622516247987e-01  9.9647634155942044e-01 -5.5351670571125124e-07 1.9820955514492750e-01  7.0741744316602584e-01 2.8913302783749386e+00 -7.2569244399641769e-02  1.9820884230953772e-01 7.9898830129806074e-07 9.9649123570285869e-01  -1.9821591526112264e-01 -6.2729884153319066e-07 9.9648241949933358e-01  5.6445645081711793e-01 1.7848890804734399e-07 8.4477620630788364e-01  1.7957652451261050e-01 2.5308181642274805e+00 -5.6075476749761044e-01  8.4477850010683175e-01 -1.8512966464300313e-07 5.6446220303669470e-01  1.0401974996192258e+00 3.0246878277407432e+00 1.0290336567975863e-01  -4.5276585525091895e-01 2.7090181969336067e+00 -3.1994271863462631e-01  -5.6446324332158082e-01 -6.5676316869298351e-07 8.4477248620416612e-01  -7.0235036932002087e-02 2.0397610031409559e+00 -2.5320798004428202e-01  8.6348220350805882e-01 2.7794866247519594e+00 1.2462786094693187e-01  4.5235072800704956e-01 2.3395099734291169e+00 -6.2173898573950608e-02  5.7450848506990593e-01 2.3100588739675558e+00 1.3552633766368383e-01  7.1150168451151063e-01 2.5495301048924746e+00 1.3702080764837773e-01  3.2836128836828943e-01 1.5047133941350306e+00 3.3962745281979123e-01  -6.4704423937863398e-01 2.7123894326264204e+00 -3.0040604543274833e-02  -3.3282528660223532e-01 1.8842069997343192e-01 9.5858986947453184e-01  -1.1116820240484122e+00 2.5650519796214937e+00 1.6661273463986082e-01  -9.1839217636638615e-01 1.6461060883852254e+00 4.8347899490847951e-01  -1.0691263261490069e+00 1.5348784827246251e+00 2.1134176847507560e-01  -1.1115905550646745e+00 1.6997378503859297e+00 -2.4576501655160578e-05  -7.3334628057901063e-01 1.6352914041482354e+00 5.5067485792591642e-01  -5.7277738439714543e-01 3.9116134228423799e-01 8.4899875755052068e-01  1.1922849476731998e+00 2.8468883011143014e+00 -1.2034912327202444e-06  -1.0275679481102025e+00 9.4572705398681567e-01 -1.6992234027561330e-05  1.0178872552343317e+00 1.8922735942392827e-01 -2.9301718033802693e-05  1.1123388759589241e+00 1.6996126179705437e+00 -1.6503483080738200e-05  1.0277040401217834e+00 9.4569179228607847e-01 -4.7432662797653678e-05  -1.0601035306985949e+00 1.3229515516219372e+00 -2.8575437157333496e-05  1.1875327696928895e+00 2.4622983983265705e+00 -3.9400175537740866e-05  -1.1867276753562843e+00 2.4624199041325259e+00 7.6679996242775818e-05  7.4201527071436135e-01 2.8724991163819863e-01 7.0275705021536372e-01  -9.8064081988314522e-01 1.8762275701130136e+00 3.8977767753747583e-01  -7.9064451464506169e-01 6.3580453100275713e-01 6.6839669122283119e-01  -3.0105643024228296e-01 1.1053798289341572e+00 6.0556158718811082e-01  -6.3272838149682253e-01 1.8501770485845161e+00 4.3497023448797306e-01  -4.0274555154016634e-01 1.6166691725770546e+00 3.5211535490310431e-01  -5.0862836863531968e-01 2.2987458039995112e+00 5.3719795715923002e-02  5.1971025750985378e-01 8.9368994990774431e-01 8.2307578931175185e-01  1.7904466446822523e-01 1.9617692452277717e+00 -1.4273488773579646e-01  4.5552740472784597e-01 1.7471849165942692e+00 3.3278478918319426e-01  9.4743432305970632e-01 2.4401326581892802e+00 2.6303029826267998e-01  1.1256375171607338e+00 2.2480751468439477e+00 1.7872530960383678e-01  1.1097970750009458e+00 1.8877963147177534e+00 1.8722346250474786e-01  -2.2020582877944406e-01 9.5119627366049109e-01 6.6554706092679017e-01  6.8208268480987988e-01 1.2445195500454955e+00 6.8826392827038363e-01  4.9495913152127818e-01 1.4502731192265708e+00 5.4748107004833579e-01  -2.0762899551569275e-01 4.3624024437547465e-01 9.7881429030759359e-01  -1.0077745603030523e+00 1.5172110272824617e+00 3.8747583713855177e-01  -9.3381697265071106e-01 2.3017484581587615e+00 3.0803225724466721e-01  -1.0090876366637240e+00 6.5036487891166839e-01 1.6222756162507707e-01  4.1452419640545128e-02 1.7471719508904227e+00 -3.6946456053565904e-02  5.7820055454265218e-01 4.3575820553967348e-01 8.4709955804364667e-01  2.4182247818101568e-01 4.1199396608645800e-01 9.7589200786288988e-01  1.0605368196787139e+00 2.6420975518117378e+00 1.8329608652986665e-01  7.3194433294850114e-01 2.2217338815347487e+00 3.1156035344198446e-01  -4.8386529548316992e-01 2.4242323637376075e+00 -6.8325406705593061e-02  -4.9047956622982275e-01 1.7846534168361046e+00 3.5205023834771404e-01  9.7337001067014794e-01 2.0703411639709390e+00 3.5317805452990508e-01  -5.2555870304090242e-03 1.1428896682561176e+00 4.2909869505329584e-01  3.2220936926686139e-01 2.0749402957957783e+00 -8.0409606518158191e-02  3.3712277836400528e-01 1.8078954177263495e+00 1.3048406723897901e-01  1.8738319246222195e-02 1.7987955111231146e-01 1.0085279771045188e+00  -7.1003171369710028e-01 2.5221280531868286e+00 1.5295900406664409e-01  1.7334803794570935e-01 1.5821257035217291e+00 1.3857700009485541e-01  3.1070910740991353e-01 2.3584737785496843e+00 -2.8630416576758777e-01  -3.1785992688939568e-01 5.6850473191751150e-01 9.4254856672832033e-01  -4.9334468439475476e-01 5.6746824501096604e-01 8.9467295314766970e-01  6.0220601139902380e-02 2.2077884353749000e+00 -3.8580037718907451e-01  -1.7606913708486133e-01 1.9562801339727836e+00 -1.4101432882825038e-01  -9.0274525806943695e-01 6.3620699049471530e-01 4.9765326720726150e-01  -9.6936164166717775e-01 8.6302503964817123e-01 3.6620624963419163e-01  -3.5573692847089933e-01 2.1111813951667346e+00 -5.9301404386696538e-02  -3.0210246983562616e-01 1.8163480358124071e+00 7.9640911411202803e-02  -1.0085174367724836e+00 2.8386249746170100e-01 1.4514847284994886e-01  7.8723940430578099e-01 1.3598515639303613e-01 6.4524551050703149e-01  -6.4340080186619852e-01 1.3902406400905426e-01 7.8873287055204921e-01  -1.1029225962926932e+00 1.7630464191201680e+00 1.6867957667900693e-01  1.0530675154685520e+00 1.3524106350324403e+00 1.7948199502326093e-01  -4.8626352198157913e-01 8.6773488560875267e-01 8.3468518464140740e-01  -5.9943167214550142e-01 7.3540680555548299e-01 8.3280116057649134e-01  6.9142789156878912e-03 1.4680649958404197e+00 1.7296522680291584e-01  -9.7369232350479951e-01 1.3959496949674075e-01 2.9526262114478391e-01  -5.3983216488615537e-01 2.6127555520345171e+00 -1.1190270291965193e-01  1.0169846327430996e+00 8.5136198721188072e-01 1.3650470410164872e-01  -1.7362692694812323e-01 1.6267104645805672e+00 1.0467925439953114e-01  6.8981605220041864e-01 6.3593272082733521e-01 7.7141073396293114e-01  -9.1116900604824669e-01 3.5608300573502072e-01 4.6258028348499258e-01  2.1612670289202421e-01 2.2237360227982839e+00 -3.0410803181703178e-01  8.0114168406571229e-01 1.5786199574536846e+00 5.5855892731952606e-01  4.5516190736346906e-01 1.1493237375875649e+00 6.8951136278106662e-01  -2.9918399212347285e-01 2.2639086915020523e+00 -2.4039425294081398e-01  7.3381493658031283e-01 1.9343780614411163e+00 4.3438007853787275e-01  9.8014701598950649e-01 1.7445610596213730e+00 4.1149957428297240e-01  -7.4583702068440194e-01 4.5704755471041775e-01 7.0718118601218827e-01  2.0722051713595460e-01 7.1587172253962983e-01 8.5771393377182603e-01  -5.2231814077046701e-01 2.0462199269885639e+00 2.3267703967563935e-01  -5.6439672062544788e-01 1.2250835050351472e+00 6.9404969682425233e-01  -7.2812096581995966e-01 1.0368208024029186e+00 7.2306332661953931e-01  -7.6866337060227286e-01 1.3459250923098156e+00 6.3618220341849374e-01  9.5120150148039861e-01 9.3871333258982914e-01 4.3183685376888487e-01  -9.8890202796358229e-01 1.1812436061528593e+00 3.8136307852305296e-01  8.9742974064948167e-01 1.2529062729451607e-01 4.7940827938132397e-01  9.1617806008803715e-01 3.8461226363038004e-01 4.5377716948865360e-01  -5.7234855094750714e-01 1.5388382983978361e+00 5.5142910206250562e-01  9.8364014277083567e-01 1.4472458391680998e+00 4.2919796274211647e-01  -7.8095