<?xml version="1.0"?>
<VTKFile type="UnstructuredGrid"  version="0.1"  >
<UnstructuredGrid>
<Piece  NumberOfPoints="758" NumberOfCells="1386">
<Points>
<DataArray  type="Float64"  NumberOfComponents="3"  format="ascii">-1.570796326794897 3.048 0  -1.570796326794897 0 0  1.570796326794897 0 0  1.570796326794897 3.048 0  0 0 0  0 3.048 0  -1.570796326794897 1.524 0  1.570796326794897 1.524 0  -0.04609926118424437 1.524 0  0.7853981633974483 0 0  0.7623485328053261 2.262242601661362 0  -0.7853981633974483 0 0  -0.7853981633974483 3.048 0  0.392699081698724 0.7745759241961347 0  -1.570796326794897 0.762 0  -0.8084477939895706 2.0955 0  -0.68277245543452 0.8915343570675713 0  0.7853981633974483 3.048 0  0.778743707341909 1.468410948960538 0  2.780093748954961e-16 2.285302774973185 0  -1.570796326794897 2.286 0  1.570796326794897 0.762 0  1.570796326794897 2.286 0  -0.9375370967763674 1.47348297960658 0  0.9831575747762593 0.9003629142671278 0  -0.3926990816987241 0.4064697549061488 0  1.177419588818055 1.905 0  0.3692901340097942 1.880893989147954 0  -0.4920225169641509 2.564371687128368 0  0.3926990816987241 3.048 0  1.178097245096172 0 0  1.155705348811136 2.643920532523289 0  -1.178097245096172 3.048 0  -1.178097245096172 0 0  -0.1391296372266528 0.8873724190154949 0  -1.10527745318919 2.528282743051346 0  -0.9817477042468103 0.4742759268549471 0  -0.3416666987802651 1.923944646262223 0  -1.570796326794897 1.905 0  -1.156555306160469 1.030861936336814 0  0.7648449098493205 0.4764142032227 0  0.3926990816987241 0 0  -0.4820376416180818 1.326151321396512 0  0.06374421723344185 0.4545169930886408 0  0.1972735722393064 1.163324878565267 0  0.3900417218314142 2.566922767651637 0  1.570796326794897 0.381 0  1.188877612935585 1.295195418509834 0  1.179914028402171 0.5308585702661928 0  0.7660075594126428 1.865233039449035 0  0.6330293131838399 1.095171663968746 0  -1.201232463242587 2.144287146570887 0  -0.3926990816987241 0 0  -0.3926990816987241 3.048 0  1.178097245096172 3.048 0  0.7684409382397209 2.649499271873753 0  -1.236954997304436 1.7145 0  -0.1088573452899617 2.666651387486592 0  -1.570796326794897 1.143 0  -1.570796326794897 0.381 0  1.570796326794897 1.143 0  1.570796326794897 1.905 0  1.570796326794897 2.667 0  -1.570796326794897 2.667 0  -0.6730839067294777 1.743003792473746 0  1.199831389396789 2.275437921225198 0  0.3936837537618041 1.495643752599615 0  0.01539369169800942 1.928544709491661 0  0.4156551272669651 0.4219033286010089 0  0.3401546043708642 2.225103550856524 0  -0.3379897306391274 2.262671266279809 0  -1.23624174049596 0.7000907110925838 0  -1.265224057170889 1.360131453617764 0  -0.1224339018241312 1.210043725539656 0  1.289286200625578 0.9918698881707442 0  -0.7751142346211329 1.197848666814478 0  1.003546186550495 0.2660297686099683 0  0.1963495408493621 2.808538634159524 0  -0.8079023568959116 2.703551618159924 0  -0.3480226984353056 1.610059855391589 0  1.075147893506229 1.598068412087719 0  -0.8290627893979112 2.399544545867518 0  0.6965048925255637 0.7972100472372819 0  -1.257765094876752 0.3107645483825858 0  -0.6724835324263325 0.5684215760013651 0  -0.3995059642389676 0.7173610149075536 0  0.9136951972244611 1.187564504803626 0  -0.964259350608907 0.8095514380783081 0  -0.7565990314517038 0.2897049735129544 0  -0.9603859887840651 1.834914433810327 0  -0.1457055965762301 0.2521630699436873 0  0.1963495408493621 0.2041911848053476 0  0.6241974196550791 0.231695999252114 0  -0.4098815011312292 1.029160072548571 0  0.9592800715482012 2.452820690856482 0  0.9648684169153161 2.840751931000357 0  0.5890486225480862 3.048 0  0.164631037784102 1.698913854044779 0  0.5664480837073581 2.070920238540226 0  1.374107957806476 1.7145 0  0.9861079629544779 2.102471438422718 0  -1.374446785945534 3.048 0  -1.288827800789186 2.762781313597598 0  1.353232957571468 2.835634774483438 0  1.302158670506274 0.2650078124691045 0  0.1394669809465775 0.8907702620243092 0  -0.5631487221059602 2.830992231257464 0  1.372837635547072 2.483038902756259 0  -0.1493395228831287 0.618617259260858 0  -1.32327048447753 2.378769394323546 0  0.56080204725298 1.699622905297025 0  1.570796326794897 2.0955 0  0.5403456747786348 2.786446773498672 0  -0.9817477042468103 0 0  -0.5847039960246873 2.326882432521036 0  0.1225428891326576 2.526494255738436 0  -0.9817477042468103 3.048 0  -0.5522901559753841 2.071668786267058 0  -1.370864794258017 0.9075071715671403 0  -1.043891045637083 1.250611220450313 0  -0.1652643923634778 2.09141301924679 0  -1.044446740946883 2.764982067459552 0  -0.1610370079820225 1.763280243096074 0  -0.3136912237752232 2.810498886211121 0  0.5400974078002052 2.370472734822523 0  -0.7009161718414544 1.427243880175582 0  0.902907438200502 0.6735032943420574 0  -0.9879196222361604 0.2371379634274736 0  1.319268546233604 0.7412771512308228 0  0.5578373583610097 0.608241627784878 0  0.5756483102040615 1.332636919938113 0  -0.5281701577409 0.2032348774530744 0  -0.266729509930448 2.489223923247521 0  -1.570796326794897 0.5715 0  -0.2430656531629531 1.405631921096758 0  0.253622337931223 0.5884397663452474 0  1.284044721043478 1.50372037617638 0  1.570796326794897 1.3335 0  -0.9904333867980613 2.235882060371517 0  0.9871146764618406 1.395690276854986 0  -1.374446785945534 0 0  0.3981951765262902 1.020833864419675 0  0.1670583512016766 1.405384478716078 0  -1.330327693484763 1.938638984813805 0  0.2106653067452682 2.040805097078886 0  1.570796326794897 0.5715 0  1.334822181490566 2.081373939821734 0  -0.9303227889097604 1.033236710715967 0  -1.34639228476592 1.150776798768373 0  -1.570796326794897 0.1905 0  1.106697207481837 1.099709897393925 0  0.4137866939027022 0.2104288000383385 0  -1.570796326794897 2.0955 0  0.9761377489246634 0.4754251272674608 0  1.377108465632662 0.4605024587280874 0  1.108114944719677 0.7297638044096917 0  0.3695908229138113 1.285681859811955 0  0.9799112840676307 1.800306505551499 0  -0.001696842075803034 1.042028929293442 0  1.366537356420357 1.185723700290463 0  -1.385029840108318 0.47625 0  0.05842649915411911 0.6874537157920781 0  -1.183268988745763 0.4997334438341218 0  -0.6073502281622543 1.081347079085406 0  -1.026941765261019 2.031536576622642 0  -1.570796326794897 2.8575 0  0.8159726599830506 1.011928543199529 0  0.7652782693277244 2.849245002237192 0  -0.5252326280373281 1.520125074885265 0  0.7648326174724897 2.063743853392348 0  0.757099741434616 1.666331708950521 0  -0.1963495408493621 3.048 0  -0.005410422648647092 2.843333256403111 0  -1.395368347654653 2.19075 0  1.374446785945534 0 0  0.9817477042468103 3.048 0  0.1963495408493621 0 0  -0.1963495408493621 0 0  0.5890486225480862 0 0  0.1963495408493621 3.048 0  0.9817477042468103 0 0  1.374446785945534 3.048 0  -0.5890486225480862 3.048 0  -0.5890486225480862 0 0  -0.06865319188571758 2.471928549109083 0  1.159049337209348 2.838090892449816 0  0.5817075150535711 2.596909954318943 0  0.7656515661107315 2.455866896253367 0  0.9620790410056582 2.647119292933887 0  0.3676829480103987 1.68739481709134 0  -0.8886101495223063 2.878912500124773 0  -0.3317793704126089 0.1873756770788371 0  -1.383208664444332 2.577695923010364 0  -1.043597917648523 1.648216005744782 0  -1.362178343413552 1.546177620526679 0  -1.570796326794897 1.7145 0  -0.8462722504471433 1.648434957877788 0  -0.588076822054871 0.3899352838051667 0  1.570796326794897 2.8575 0  -1.570796326794897 0.9525 0  1.570796326794897 0.1905 0  1.570796326794897 1.7145 0  1.570796326794897 0.9525 0  -1.570796326794897 1.3335 0  1.570796326794897 2.4765 0  -1.570796326794897 2.4765 0  0.8103777117362174 0.287468585434799 0  -1.145334531235929 1.881885620422454 0  -0.8620560674467429 0.6361265362229395 0  -0.321688879263093 1.207848147265888 0  -0.7798551871678058 1.904240998338365 0  -0.4724954359209014 1.769587110195458 0  -0.667402576232105 2.495985359319255 0  0.5365063314111709 0.8945566719544227 0  0.1855702280441107 2.342745654422604 0  0.55510120733165 1.88540118775351 0  1.188295809121239 2.460939894898248 0  1.38587897409014 2.260870763688798 0  1.383978812419919 1.901097375082534 0  -0.2265735189171196 1.049795314962436 0  0.7387890113368257 1.246392780742437 0  0.5763234466275948 1.516457524623135 0  -0.203279258075353 0.4348372558382012 0  -1.179202350299698 1.523245956950107 0  -1.151844216720993 2.318990544544152 0  -1.410806081599612 0.6547540757597369 0  0.04190096621848406 2.108399609871347 0  0.5925649981629265 0.4343292987553075 0  0.2371113691258682 0.4102816185532077 0  1.334103818253725 2.657728219912091 0  0.9405077369493808 2.275181409651143 0  -0.633962040105568 2.669303984283053 0  -0.6045614816381242 1.904349918307267 0  1.159697673803787 2.079238591118184 0  -0.004643801590645341 1.347662554528907 0  0.3691400131247499 2.395423267764724 0  0.3855005143298051 2.055603978165229 0  0.01839821075864462 0.1788084577298442 0  -0.9568120219060965 2.61629404172056 0  0.1783135820912846 1.871116340262054 0  0.3649950158263953 2.745288921627024 0  -0.3142054567155264 0.5671999812317062 0  -0.4933549623779417 0.564740705097546 0  0.06092775470575962 2.685867440722903 0  -0.1801827362748675 2.337517890002858 0  -1.063355415037434 0.6386189748554 0  -1.205242865599393 0.8676070232612285 0  -0.4176020549597784 2.412196127179313 0  -0.3347051678178828 2.093252344225509 0  -1.427772711006951 0.2857500000000001 0  0.8835729338221293 0.1362887052191026 0  -0.6831011505337878 0.1389086130988801 0  -1.403875662049666 1.77648180985222 0  1.394165436236593 1.362588987767805 0  -0.5007942298153729 0.8700626692351643 0  -0.6093220848169366 0.7321530406295067 0  0.007534593095922887 1.760126887057542 0  -1.276272015520854 0.140425968067263 0  -0.7270478511000733 2.847016806985676 0  1.436331331726002 0.85725 0  -0.1770320080670663 1.927167796173981 0  0.7200726153501196 0.6345534912379586 0  -1.099983122078282 0.3577316115390257 0  0.2324759135153202 2.648405702327079 0  0.9054371869972004 1.582409569434113 0  0.5000672234640285 1.188708149930449 0  -0.340793734207542
[...]
<PointData  Vectors="phi"> 
<DataArray  type="Float64"  Name="phi"  NumberOfComponents="3" format="ascii">-1.0393553467712520e+00 3.0430535664336729e+00 -2.0525658210585683e-05  -1.0160062394039073e+00 -5.2475483852892248e-08 -1.0135102465793182e-05  1.0160064598363392e+00 -3.8977390612788458e-08 -1.1994550736739593e-05  1.0393892599648262e+00 3.0430531040763462e+00 -1.0659728865660281e-05  -6.0191369270402344e-06 1.0016987024488408e-08 1.0160052764045833e+00  -2.1849838155293990e-05 3.0149275141772081e+00 7.3272932541171076e-01  -1.0330514010738936e+00 1.5196950786677390e+00 -1.7792102305014912e-05  1.0330677371942643e+00 1.5196931013169115e+00 -2.5799796351203962e-05  -4.6791402410529405e-02 1.5294237200187599e+00 9.8517711154695398e-01  7.1842673989375994e-01 6.8327309211125182e-08 7.1841637561068072e-01  7.2674795692955474e-01 2.2607380279617941e+00 7.3195512855150002e-01  -7.1842479103833257e-01 -1.1844369599070763e-07 7.1841784333346015e-01  -7.6872363056255133e-01 3.0455071505260203e+00 7.2520437395638160e-01  3.8920723457752765e-01 7.7658182298463074e-01 9.3221849832144310e-01  -1.0232373180935868e+00 7.5935819352623513e-01 -1.9368849540603895e-05  -7.5757786491401335e-01 2.0936648945156748e+00 6.9961143994217811e-01  -6.4415418129536151e-01 8.9186448082934822e-01 7.8483069641179526e-01  7.6877386077275289e-01 3.0455379552706439e+00 7.2526202885865443e-01  7.2411307851669016e-01 1.4676630059559315e+00 7.1939742243587046e-01  -5.1576463243606466e-06 2.2917006470362100e+00 9.4591463848711588e-01  -1.0402186818590562e+00 2.2811058697517033e+00 -2.2011427239193852e-05  1.0232450837956666e+00 7.5935688890237529e-01 -3.0915286947337857e-05  1.0402430866640457e+00 2.2811054129126012e+00 -5.3158500540003368e-05  -8.3245027148966377e-01 1.4713554818004815e+00 5.9995904270654454e-01  8.5170391736050000e-01 8.9883461250930408e-01 5.6252703402703363e-01  -3.8868766851350028e-01 4.0757690770383048e-01 9.3584038993987673e-01  9.6133222640307459e-01 1.9008426656354533e+00 3.8990516453970975e-01  3.7013256735835559e-01 1.8848939129963505e+00 9.1926649799596616e-01  -4.9555599356101987e-01 2.5670436179065490e+00 8.6535709391607030e-01  3.9235139119106943e-01 3.0460388394728843e+00 8.1434895467650670e-01  9.3866036154933219e-01 -1.0467042133703110e-07 3.8880641591658965e-01  9.6571297864308570e-01 2.6390764326988485e+00 4.1258938111084997e-01  -9.8024647362986994e-01 3.0429519419939566e+00 3.9316520907783026e-01  -9.3865728970773132e-01 -2.3886017676508729e-07 3.8881414040833689e-01  -1.4080258844543500e-01 8.9071344345886383e-01 9.9495980948456453e-01  -9.4312023568859549e-01 2.5236550886437472e+00 4.5899254207947016e-01  -8.4715169507012977e-01 4.7346027703014043e-01 5.6424994912627802e-01  -3.4335759082253003e-01 1.9282883421614758e+00 9.2569494119924545e-01  -1.0373903019735564e+00 1.9002792926882139e+00 -2.4309079225642316e-05  -9.3918946451581309e-01 1.0282920991326896e+00 4.0879932363194010e-01  7.0481400517620818e-01 4.7633582275157388e-01 7.3198364104357583e-01  3.8881352520525281e-01 1.7002736098821118e-07 9.3866128437685803e-01  -4.7404515201805353e-01 1.3283948427954124e+00 8.8861916366973970e-01  6.4631939729036400e-02 4.5638886175601850e-01 1.0092242668821090e+00  1.9916469385811830e-01 1.1673065247926639e+00 9.7979134194092010e-01  3.9508078783851902e-01 2.5709410721992905e+00 8.9027402599536920e-01  1.0194409997778944e+00 3.7958605478357493e-01 -1.9468573527005798e-05  9.5587625792932052e-01 1.2919674313149880e+00 3.7859555389334731e-01  9.4315202359484562e-01 5.2938497317645594e-01 3.8720723352783032e-01  7.2104804307053150e-01 1.8641883142887483e+00 7.2804273445097545e-01  6.0498343412021560e-01 1.0959132662321822e+00 8.1373851885750004e-01  -9.7412485315424058e-01 2.1397798973559907e+00 3.6783166563953112e-01  -3.8880341387165157e-01 6.4939441761086843e-09 9.3866184301969735e-01  -3.9237822661350552e-01 3.0460998589987889e+00 8.1472117031186209e-01  9.8024281764414189e-01 3.0429534886200300e+00 3.9316333585254437e-01  7.4283957173231174e-01 2.6474438430988649e+00 7.3198289663952398e-01  -9.7964619369913386e-01 1.7104059611180691e+00 3.3310994178818942e-01  -1.1029966579360256e-01 2.6687890985200258e+00 8.9034087580982912e-01  -1.0280548656110384e+00 1.1393884580069635e+00 -2.6824365344872962e-05  -1.0194383777457035e+00 3.7958670817959178e-01 -2.5124408060163610e-05  1.0280660078079040e+00 1.1393865389463902e+00 -9.7800323487241085e-06  1.0374095397435832e+00 1.9002780575236946e+00 -5.1527913765162131e-05  1.0408985511014164e+00 2.6620825823680958e+00 -2.2137393963684214e-05  -1.0408780029777285e+00 2.6620829604989789e+00 -2.2991177877890813e-05  -6.4511115426513654e-01 1.7431771956944824e+00 7.8684326110610603e-01  9.7573143919068761e-01 2.2708076146514933e+00 3.6945582238675945e-01  3.9205166556940446e-01 1.4989373568907864e+00 9.2039143679940860e-01  1.5620675972387900e-02 1.9348317203984373e+00 9.6789089797915162e-01  4.1016634262033391e-01 4.2298621367750028e-01 9.2668457781928304e-01  3.4337271422860338e-01 2.2296990422848881e+00 9.1624832171528181e-01  -3.4150105795157359e-01 2.2673023313583522e+00 9.1541927418437674e-01  -9.6532625424749618e-01 6.9804075229499807e-01 3.3370043956787848e-01  -9.8335031446814214e-01 1.3565232977584063e+00 3.0569934380606129e-01  -1.2403380297200377e-01 1.2144324832051137e+00 9.8952163261814607e-01  9.8541080274883752e-01 9.8896015191958708e-01 2.8230563680822796e-01  -7.1799777651865104e-01 1.1973643496679713e+00 7.2250046306034443e-01  8.5810542894569863e-01 2.6553774746188741e-01 5.4597106678842544e-01  1.9789628166301543e-01 2.8067637521234312e+00 8.5439228041001036e-01  -7.7466453332030183e-01 2.7008705600163094e+00 7.0607113383234887e-01  -3.4846369412956518e-01 1.6139506369054342e+00 9.3250598845828103e-01  9.1092240117446177e-01 1.5948380892270733e+00 4.8305464260137754e-01  -7.8024823859991321e-01 2.3970291465549507e+00 6.8720392832186816e-01  6.5443846437295006e-01 7.9744567985922210e-01 7.7656426665465661e-01  -9.6897387306966598e-01 3.0978800537158163e-01 3.1308169180676082e-01  -6.3414725941676875e-01 5.6873173881390793e-01 7.9285369906872838e-01  -3.9551494828959960e-01 7.1920356641900030e-01 9.3030725046350538e-01  8.1332046490920040e-01 1.1860272770648510e+00 6.1906421931052436e-01  -8.3979684030680646e-01 8.0826240732373866e-01 5.7841859758668013e-01  -6.9798190394783188e-01 2.8968438665720436e-01 7.3827198801415894e-01  -8.5298035435521891e-01 1.8320478488420058e+00 5.8202407726991501e-01  -1.4738561376534162e-01 2.5316164694078480e-01 1.0029163889488590e+00  1.9806124355440197e-01 2.0496374960883471e-01 9.9475513715635111e-01  5.9389561769629340e-01 2.3192753647967707e-01 8.2366267353222389e-01  -4.0591413594983022e-01 1.0315773690291115e+00 9.2238468897739601e-01  8.6682076597942592e-01 2.4490099418969868e+00 5.8654886776398008e-01  8.8195539396579581e-01 2.8363884362861160e+00 5.8626666200481903e-01  5.9096378722492171e-01 3.0490747775116134e+00 8.1161902178165246e-01  1.6667369865002760e-01 1.7043477584272761e+00 9.6835203948299575e-01  5.5758578406131531e-01 2.0723682804495289e+00 8.4182172269837907e-01  1.0160080865075614e+00 1.7100960900247280e+00 1.9863714767279231e-01  8.7371566168418813e-01 2.0989992253478733e+00 5.6172816720509189e-01  -1.0250941905236139e+00 3.0430084930571355e+00 1.9888100417470195e-01  -1.0077639395420810e+00 2.7578086501161874e+00 2.8399549976013966e-01  1.0215334467701787e+00 2.8306640339103679e+00 2.2002572936149972e-01  9.8163483373114468e-01 2.6413276340542274e-01 2.6987618708304822e-01  1.4111897682018273e-01 8.9412304881976912e-01 9.9484610944317153e-01  -5.6610838199816516e-01 2.8325340750801526e+00 8.3163118700425620e-01  1.0234927830469744e+00 2.4781242906370760e+00 2.0014893079705465e-01  -1.5101876492230198e-01 6.2101242090713826e-01 9.9808267897473779e-01  -1.0126861564690905e+00 2.3739108348586320e+00 2.4942778893294076e-01  5.4803581319027039e-01 1.7011961958308659e+00 8.4774321752089676e-01  1.0390717517042254e+00 2.0906640042388873e+00 -2.2891190874199115e-05  5.4388047732951872e-01 2.7883711498429533e+00 8.4082178994320667e-01  -8.4477344072382499e-01 -4.8841579751610798e-08 5.6446143107819746e-01  -5.7838856234166058e-01 2.3279802622626518e+00 8.3210581244635073e-01  1.2455071327536268e-01 2.5315376957727560e+00 9.1793059203850025e-01  -8.9818537240043006e-01 3.0433866255136861e+00 5.7468831558339184e-01  -5.4478003050066370e-01 2.0733240781040223e+00 8.4836103530246643e-01  -1.0044155007971505e+00 9.0463296352620226e-01 2.0187416306432135e-01  -8.8943750145766753e-01 1.2481515224788693e+00 5.1034840972749096e-01  -1.6761522556442524e-01 2.0974171417896215e+00 9.5044520285993284e-01  -9.2105990945459892e-01 2.7603111736453703e+00 5.1600650517595381e-01  -1.6309507552896335e-01 1.7688580605710471e+00 9.6623657401621377e-01  -3.1627457718931629e-01 2.8120056216842495e+00 8.6200040460226057e-01  5.3821491374743891e-01 2.3722875629477280e+00 8.5120288502910990e-01  -6.6351924209303126e-01 1.4272979548737725e+00 7.7092604329284975e-01  8.0105175902841275e-01 6.7269620919644713e-01 6.2840062168884503e-01  -8.4926583508200426e-01 2.3672409054546406e-01 5.5928155764475684e-01  9.9051108905852470e-01 7.3893471555879930e-01 2.5299538193431648e-01  5.3861580081966853e-01 6.0912208388331002e-01 8.5889493475751655e-01  5.5784102203757135e-01 1.3339736410711880e+00 8.4362065447905188e-01  -5.1193749387663090e-01 2.0359151695732264e-01 8.7667172596384224e-01  -2.7092509090728484e-01 2.4943194438571581e+00 9.1407819925423384e-01  -1.0211780422499721e+00 5.6944091402387198e-01 -1.5100019847830596e-05  -2.4492525481716529e-01 1.4099763289096265e+00 9.6456272488971384e-01  2.5477188698614622e-01 5.9048587203071612e-01 9.7793886007685216e-01  9.9112740315974401e-01 1.4998074937898485e+00 2.8744975342909673e-01  1.0305970802427515e+00 1.3295043874395869e+00 -1.4549939859773322e-05  -8.7920862207422090e-01 2.2321821428508186e+00 5.5881935381205750e-01  8.6063963810363653e-01 1.3933338903520829e+00 5.5903414837768695e-01  -9.9647776378135744e-01 -2.7144493017286597e-07 1.9820742878234116e-01  3.9488212378574150e-01 1.0233173261880482e+00 9.2690885622883556e-01  1.6898973286004823e-01 1.4101426636672258e+00 9.7816618383548304e-01  -1.0094164646541803e+00 1.9340655581111896e+00 2.4218908012674936e-01  2.1331224117694292e-01 2.0464709970752666e+00 9.4737213491339567e-01  1.0211831065978128e+00 5.6944002858882914e-01 -2.6500619165809834e-05  1.0122252690110674e+00 2.0766722282233134e+00 2.3781055964200840e-01  -8.2178179458802669e-01 1.0318048422895461e+00 6.0591166555578491e-01  -1.0022891100230096e+00 1.1473789694516572e+00 2.2615827922744222e-01  -1.0176168825229577e+00 1.8978960031778189e-01 -3.3681586376667875e-05  9.1820235078978596e-01 1.0972106573362421e+00 4.5448600388779392e-01  4.0834481375171577e-01 2.1097484914278278e-01 9.2899263841283053e-01  -1.0390550733190889e+00 2.0906655330147506e+00 -3.1306296444087791e-05  8.4395379546579918e-01 4.7462496633310763e-01 5.6896028666558196e-01  1.0008952674092588e+00 4.5891093909097880e-01 1.9572834995779631e-01  9.1442928926022149e-01 7.2802265338603467e-01 4.5335500132850132e-01  3.6832150466880387e-01 1.2888628295115805e+00 9.3265670137349643e-01  8.6375390621976988e-01 1.7973511700699480e+00 5.6573405090161233e-01  -1.7279459989176826e-03 1.0460648339245653e+00 1.0007089191305372e+00  1.0071971786253422e+00 1.1822092157996835e+00 2.0616487579912648e-01  -1.0025694189803771e+00 4.7459992323343159e-01 1.8780941060385908e-01  5.9252608335899286e-02 6.9022354537034059e-01 1.0062452188610571e+00  -9.4420071108857728e-01 4.9833450362161480e-01 3.8407521148241902e-01  -5.8330915432940156e-01 1.0822958675433807e+00 8.2850048350010974e-01  -8.9461998668701015e-01 2.0279103871261075e+00 5.2652031298235369e-01  -1.0405049831219817e+00 2.8525770004487434e+00 -3.2571352716529930e-05  7.4564783076722563e-01 1.0112792671956206e+00 6.9387111520881206e-01  7.4673649156350741e-01 2.8471107080639548e+00 7.3603084449187173e-01  -5.1457149000661973e-01 1.5220669104458366e+00 8.6667255212787575e-01  7.2410381029515891e-01 2.0624662625636057e+00 7.2932077363673242e-01  7.1078052321880048e-01 1.6656069568727254e+00 7.3393462053940295e-01  -1.9764207581248458e-01 3.0305457948705241e+00 7.6928647033280662e-01  -5.4959897138096231e-03 2.8347298177917946e+00 8.3031991858649390e-01  -1.0252141602548004e+00 2.1859268753072048e+00 1.7748809504996943e-01  9.9647763295873115e-01 -3.6264485563136534e-07 1.9821011064808802e-01  8.9819107138433119e-01 3.0433782145819328e+00 5.7469614586319429e-01  1.9820925445187590e-01 4.9301849446384736e-07 9.9648295466715719e-01  -1.9821725945958760e-01 2.7044185073701911e-07 9.9647916173780660e-01  5.6445644032517928e-01 8.6352629029939078e-08 8.4477628935755456e-01  1.9757144056475379e-01 3.0304762665368097e+00 7.6912032322378454e-01  8.4477518140086172e-01 -1.8798868273182561e-08 5.6446041765494370e-01  1.0251262152636424e+00 3.0430036542993939e+00 1.9889085248181870e-01  -5.9100678705370668e-01 3.0490984707406508e+00 8.1180194113755755e-01  -5.6446128318344457e-01 5.9681862166401615e-08 8.4477035981454884e-01  -6.9857547924589966e-02 2.4774840687039887e+00 9.2669126210496078e-01  9.7035219750227719e-01 2.8331304611893837e+00 4.1034684849105996e-01  5.8106865885896641e-01 2.5980760248977477e+00 8.3211755915569918e-01  7.3454108589200151e-01 2.4540757522514642e+00 7.3144784417215691e-01  8.7416917421079221e-01 2.6430048607315029e+00 5.8626792995332289e-01  3.6776968663520893e-01 1.6911974039903961e+00 9.2467462471405348e-01  -8.3699733436467816e-01 2.8751234259934697e+00 6.4890195429625774e-01  -3.3075311584923267e-01 1.8795898150568366e-01 9.5931529325841025e-01  -1.0256931903874009e+00 2.5727658457789180e+00 1.8980996266760056e-01  -8.9584765146831036e-01 1.6450852551301594e+00 5.1094713863799224e-01  -1.0112787191609263e+00 1.5420249090750533e+00 2.1051151492205075e-01  -1.0353593579122444e+00 1.7099532052638378e+00 -3.5142669557120417e-05  -7.7560216169884511e-01 1.6468265545548340e+00 6.7097934741707299e-01  -5.6394031052547799e-01 3.9042853328781124e-01 8.4370062926376010e-01  1.0405067680432587e+00 2.8525786158385320e+00 -2.0718977690958998e-05  -1.0255702954104984e+00 9.4934008115610646e-01 -1.7812099518677741e-05  1.0176159966116447e+00 1.8978881731363562e-01 -2.9418745196806597e-05  1.0353732206901287e+00 1.7099516674175812e+00 -2.1232781734255876e-05  1.0255830455226409e+00 9.4933825020282825e-01 -5.0287038317071753e-05  -1.0305845702364802e+00 1.3295064802602279e+00 -3.2569752003880898e-05  1.0408623799214420e+00 2.4715827618613209e+00 -1.6338767798352988e-05  -1.0408284575344338e+00 2.4715841175555351e+00 -1.9725146433808244e-05  7.3684634232573964e-01 2.8732852230691019e-01 6.9987828709777256e-01  -9.4796986135492234e-01 1.8778824125915687e+00 4.1980071349501780e-01  -7.7413155415230517e-01 6.3554509303158879e-01 6.6031718375606818e-01  -3.2193373996869035e-01 1.2112334495449348e+00 9.4925933264726348e-01  -7.3231674248098977e-01 1.9029863543504029e+00 7.1874951942751930e-01  -4.6803497879146128e-01 1.7722676221396072e+00 8.8608532419059871e-01  -6.5527920363714554e-01 2.4956529468878106e+00 7.9090826155398952e-01  5.2100006256909703e-01 8.9589950241302763e-01 8.6769588235132145e-01  1.8856109950388877e-01 2.3485960691485230e+00 9.3356435173309782e-01  5.4497539360304459e-01 1.8870379796932810e+00 8.4871235941510859e-01  9.7453518394951677e-01 2.4561799745915844e+00 3.8093896429527968e-01  1.0242237381029200e+00 2.2560222120283662e+00 1.8699601734759075e-01  1.0202226145463729e+00 1.8964820623865828e+00 1.8883455463068044e-01  -2.2828607669849291e-01 1.0533299431435417e+00 9.7658922643574952e-01  6.9110359707314006e-01 1.2461887103216764e+00 7.4705319071690035e-01  5.5998097807950176e-01 1.5178318914115179e+00 8.4164072234957998e-01  -2.0490911887875449e-01 4.3646751237491499e-01 9.9101330690454081e-01  -9.5563974622280856e-01 1.5196512372905207e+00 3.8780130345565678e-01  -9.5845441749544269e-01 2.3144410772205255e+00 4.1489492416085733e-01  -1.0088604000868180e+00 6.5252206252941303e-01 1.6196376261089956e-01  4.2548187801729573e-02 2.1148440459408158e+00 9.5727098130169996e-01  5.6787247884015835e-01 4.3485964147268863e-01 8.4095271027184015e-01  2.3845286524026860e-01 4.1176317515209965e-01 9.8390146038152038e-01  1.0170891017041301e+00 2.6527802878051450e+00 2.3893818806734399e-01  8.5090996232369609e-01 2.2717803116708328e+00 6.0048777431541633e-01  -6.3026688091927796e-01 2.6695361768969108e+00 8.0834380319237209e-01  -5.8913869894143012e-01 1.9053147683115963e+00 8.2420834500313167e-01  9.5738245271966349e-01 2.0749262560983985e+00 4.0684823743533965e-01  -4.7228912331271260e-03 1.3526384456962763e+00 9.9215580821378691e-01  3.7330191093200210e-01 2.3997369525799130e+00 9.0351408466251726e-01  3.8691974554196001e-01 2.0595491406971478e+00 9.0989719430579230e-01  1.8669529151386210e-02 1.7955086981317156e-01 1.0142146793190137e+00  -8.7013386176881247e-01 2.6122581051460165e+00 5.9030522078405412e-01  1.8055071063423953e-01 1.8767820666988175e+00 9.5943401642075099e-01  3.6899235886264231e-01 2.7485346740023635e+00 8.7373393728662030e-01  -3.1390566240855372e-01 5.6899541647432139e-01 9.6141229717256738e-01  -4.8157925018421510e-01 5.6584545961738275e-01 8.9149653791522399e-01  6.1646647558593025e-02 2.6869170334800945e+00 8.8439363884426048e-01  -1.8311131115860882e-01 2.3434019059163953e+00 9.3446417177992180e-01  -8.9207981305070849e-01 6.3722706687371766e-01 4.9353568251445112e-01  -9.5625106355206568e-01 8.6522958618724888e-01 3.6318745754436549e-01  -4.2136525350681203e-01 2.4158906748398921e+00 8.9136006446109661e-01  -3.3729850117347598e-01 2.0978215695815901e+00 9.2205532852657235e-01  -1.0081087935146946e+00 2.8471825769342202e-01 1.4496860918184915e-01  7.8571269223449114e-01 1.3615190461861407e-01 6.4450761391792943e-01  -6.4137536968399678e-01 1.3898276247223029e-01 7.8774774014959936e-01  -1.0221777288457783e+00 1.7719674083568904e+00 1.6890667201776091e-01  1.0150226121210302e+00 1.3586813895779311e+00 1.7858716126421370e-01  -4.8910376942239719e-01 8.7161042441864678e-01 8.8534953875965250e-01  -5.8303781217437378e-01 7.3288424570904320e-01 8.2979845272898178e-01  7.6541202484721391e-03 1.7661268266137480e+00 9.7623723020152542e-01  -9.7315785142459654e-01 1.3997874778289446e-01 2.9503906046761669e-01  -7.1543581835745618e-01 2.8455460390360985e+00 7.5912207166232359e-01  1.0150553667291102e+00 8.5441344063734892e-01 1.3629825427023187e-01  -1.7932881426156697e-01 1.9329206835341224e+00 9.5712664148877458e-01  6.7185080086895066e-01 6.3465164308255639e-01 7.6190465726971668e-01  -9.0759981644216514e-01 3.5686572787084675e-01 4.6100878496237624e-01  2.3566512646398033e-01 2.6521509562926529e+00 8.9500964742095235e-01  8.1407629817023985e-01 1.5803732434844560e+00 6.2565987095592490e-01  4.8977694289004542e-01 1.1906494715627054e+00 8.8222861866968638e-01  -3.4542562360873502e-01 2.6465694053481035e+00 8.9023911982666237e-01  8.1550401967548114e-01 1.9627265829443303e+00 6.3399154744787412e-01  9.4061357706698390e-01 1.7453525593621244e+00 4.3043326559373335e-01  -7.3559773461506117e-01 4.5691352171531657e-01 7.0151541282357044e-01  2.1187632764297387e-01 7.4744419666229800e-01 9.8554445189128603e-01  -6.5087037567801265e-01 2.1861328275673295e+00 7.8770866100229497e-01  -5.9513742123476665e-01 1.2431490329458950e+00 8.2026273584059961e-01  -7.0938635809114958e-01 1.0332797969773688e+00 7.2945686341477012e-01  -7.6629490694891855e-01 1.3442763869646623e+00 6.7581031494126231e-01  9.2984317117945914e-01 9.4054564201509194e-01 4.2669714713427559e-01  -9.5496937542795868e-01 1.1840788196190435e+00 3.7692435158982018e-01  8.9657771592890945e-01 1.2557739830504488e-01 4.7901753764815302e-01  9.1230575426982141e-01 3.8547131618841329e-01 4.5210683285247250e-01  -6.4143265461257026e-01 1.5840255317699139e+00 7.8849404338634965e-01  9.3612136400340695e-01 1.4484880514127836e+00 4.2893509770715288e-01  -8.9358154976590110e-01 2.3930905207718