<?xml version="1.0"?>
<VTKFile type="UnstructuredGrid"  version="0.1"  >
<UnstructuredGrid>
<Piece  NumberOfPoints="758" NumberOfCells="1386">
<Points>
<DataArray  type="Float64"  NumberOfComponents="3"  format="ascii">-1.570796326794897 3.048 0  -1.570796326794897 0 0  1.570796326794897 0 0  1.570796326794897 3.048 0  0 0 0  0 3.048 0  -1.570796326794897 1.524 0  1.570796326794897 1.524 0  -0.04609926118424437 1.524 0  0.7853981633974483 0 0  0.7623485328053261 2.262242601661362 0  -0.7853981633974483 0 0  -0.7853981633974483 3.048 0  0.392699081698724 0.7745759241961347 0  -1.570796326794897 0.762 0  -0.8084477939895706 2.0955 0  -0.68277245543452 0.8915343570675713 0  0.7853981633974483 3.048 0  0.778743707341909 1.468410948960538 0  2.780093748954961e-16 2.285302774973185 0  -1.570796326794897 2.286 0  1.570796326794897 0.762 0  1.570796326794897 2.286 0  -0.9375370967763674 1.47348297960658 0  0.9831575747762593 0.9003629142671278 0  -0.3926990816987241 0.4064697549061488 0  1.177419588818055 1.905 0  0.3692901340097942 1.880893989147954 0  -0.4920225169641509 2.564371687128368 0  0.3926990816987241 3.048 0  1.178097245096172 0 0  1.155705348811136 2.643920532523289 0  -1.178097245096172 3.048 0  -1.178097245096172 0 0  -0.1391296372266528 0.8873724190154949 0  -1.10527745318919 2.528282743051346 0  -0.9817477042468103 0.4742759268549471 0  -0.3416666987802651 1.923944646262223 0  -1.570796326794897 1.905 0  -1.156555306160469 1.030861936336814 0  0.7648449098493205 0.4764142032227 0  0.3926990816987241 0 0  -0.4820376416180818 1.326151321396512 0  0.06374421723344185 0.4545169930886408 0  0.1972735722393064 1.163324878565267 0  0.3900417218314142 2.566922767651637 0  1.570796326794897 0.381 0  1.188877612935585 1.295195418509834 0  1.179914028402171 0.5308585702661928 0  0.7660075594126428 1.865233039449035 0  0.6330293131838399 1.095171663968746 0  -1.201232463242587 2.144287146570887 0  -0.3926990816987241 0 0  -0.3926990816987241 3.048 0  1.178097245096172 3.048 0  0.7684409382397209 2.649499271873753 0  -1.236954997304436 1.7145 0  -0.1088573452899617 2.666651387486592 0  -1.570796326794897 1.143 0  -1.570796326794897 0.381 0  1.570796326794897 1.143 0  1.570796326794897 1.905 0  1.570796326794897 2.667 0  -1.570796326794897 2.667 0  -0.6730839067294777 1.743003792473746 0  1.199831389396789 2.275437921225198 0  0.3936837537618041 1.495643752599615 0  0.01539369169800942 1.928544709491661 0  0.4156551272669651 0.4219033286010089 0  0.3401546043708642 2.225103550856524 0  -0.3379897306391274 2.262671266279809 0  -1.23624174049596 0.7000907110925838 0  -1.265224057170889 1.360131453617764 0  -0.1224339018241312 1.210043725539656 0  1.289286200625578 0.9918698881707442 0  -0.7751142346211329 1.197848666814478 0  1.003546186550495 0.2660297686099683 0  0.1963495408493621 2.808538634159524 0  -0.8079023568959116 2.703551618159924 0  -0.3480226984353056 1.610059855391589 0  1.075147893506229 1.598068412087719 0  -0.8290627893979112 2.399544545867518 0  0.6965048925255637 0.7972100472372819 0  -1.257765094876752 0.3107645483825858 0  -0.6724835324263325 0.5684215760013651 0  -0.3995059642389676 0.7173610149075536 0  0.9136951972244611 1.187564504803626 0  -0.964259350608907 0.8095514380783081 0  -0.7565990314517038 0.2897049735129544 0  -0.9603859887840651 1.834914433810327 0  -0.1457055965762301 0.2521630699436873 0  0.1963495408493621 0.2041911848053476 0  0.6241974196550791 0.231695999252114 0  -0.4098815011312292 1.029160072548571 0  0.9592800715482012 2.452820690856482 0  0.9648684169153161 2.840751931000357 0  0.5890486225480862 3.048 0  0.164631037784102 1.698913854044779 0  0.5664480837073581 2.070920238540226 0  1.374107957806476 1.7145 0  0.9861079629544779 2.102471438422718 0  -1.374446785945534 3.048 0  -1.288827800789186 2.762781313597598 0  1.353232957571468 2.835634774483438 0  1.302158670506274 0.2650078124691045 0  0.1394669809465775 0.8907702620243092 0  -0.5631487221059602 2.830992231257464 0  1.372837635547072 2.483038902756259 0  -0.1493395228831287 0.618617259260858 0  -1.32327048447753 2.378769394323546 0  0.56080204725298 1.699622905297025 0  1.570796326794897 2.0955 0  0.5403456747786348 2.786446773498672 0  -0.9817477042468103 0 0  -0.5847039960246873 2.326882432521036 0  0.1225428891326576 2.526494255738436 0  -0.9817477042468103 3.048 0  -0.5522901559753841 2.071668786267058 0  -1.370864794258017 0.9075071715671403 0  -1.043891045637083 1.250611220450313 0  -0.1652643923634778 2.09141301924679 0  -1.044446740946883 2.764982067459552 0  -0.1610370079820225 1.763280243096074 0  -0.3136912237752232 2.810498886211121 0  0.5400974078002052 2.370472734822523 0  -0.7009161718414544 1.427243880175582 0  0.902907438200502 0.6735032943420574 0  -0.9879196222361604 0.2371379634274736 0  1.319268546233604 0.7412771512308228 0  0.5578373583610097 0.608241627784878 0  0.5756483102040615 1.332636919938113 0  -0.5281701577409 0.2032348774530744 0  -0.266729509930448 2.489223923247521 0  -1.570796326794897 0.5715 0  -0.2430656531629531 1.405631921096758 0  0.253622337931223 0.5884397663452474 0  1.284044721043478 1.50372037617638 0  1.570796326794897 1.3335 0  -0.9904333867980613 2.235882060371517 0  0.9871146764618406 1.395690276854986 0  -1.374446785945534 0 0  0.3981951765262902 1.020833864419675 0  0.1670583512016766 1.405384478716078 0  -1.330327693484763 1.938638984813805 0  0.2106653067452682 2.040805097078886 0  1.570796326794897 0.5715 0  1.334822181490566 2.081373939821734 0  -0.9303227889097604 1.033236710715967 0  -1.34639228476592 1.150776798768373 0  -1.570796326794897 0.1905 0  1.106697207481837 1.099709897393925 0  0.4137866939027022 0.2104288000383385 0  -1.570796326794897 2.0955 0  0.9761377489246634 0.4754251272674608 0  1.377108465632662 0.4605024587280874 0  1.108114944719677 0.7297638044096917 0  0.3695908229138113 1.285681859811955 0  0.9799112840676307 1.800306505551499 0  -0.001696842075803034 1.042028929293442 0  1.366537356420357 1.185723700290463 0  -1.385029840108318 0.47625 0  0.05842649915411911 0.6874537157920781 0  -1.183268988745763 0.4997334438341218 0  -0.6073502281622543 1.081347079085406 0  -1.026941765261019 2.031536576622642 0  -1.570796326794897 2.8575 0  0.8159726599830506 1.011928543199529 0  0.7652782693277244 2.849245002237192 0  -0.5252326280373281 1.520125074885265 0  0.7648326174724897 2.063743853392348 0  0.757099741434616 1.666331708950521 0  -0.1963495408493621 3.048 0  -0.005410422648647092 2.843333256403111 0  -1.395368347654653 2.19075 0  1.374446785945534 0 0  0.9817477042468103 3.048 0  0.1963495408493621 0 0  -0.1963495408493621 0 0  0.5890486225480862 0 0  0.1963495408493621 3.048 0  0.9817477042468103 0 0  1.374446785945534 3.048 0  -0.5890486225480862 3.048 0  -0.5890486225480862 0 0  -0.06865319188571758 2.471928549109083 0  1.159049337209348 2.838090892449816 0  0.5817075150535711 2.596909954318943 0  0.7656515661107315 2.455866896253367 0  0.9620790410056582 2.647119292933887 0  0.3676829480103987 1.68739481709134 0  -0.8886101495223063 2.878912500124773 0  -0.3317793704126089 0.1873756770788371 0  -1.383208664444332 2.577695923010364 0  -1.043597917648523 1.648216005744782 0  -1.362178343413552 1.546177620526679 0  -1.570796326794897 1.7145 0  -0.8462722504471433 1.648434957877788 0  -0.588076822054871 0.3899352838051667 0  1.570796326794897 2.8575 0  -1.570796326794897 0.9525 0  1.570796326794897 0.1905 0  1.570796326794897 1.7145 0  1.570796326794897 0.9525 0  -1.570796326794897 1.3335 0  1.570796326794897 2.4765 0  -1.570796326794897 2.4765 0  0.8103777117362174 0.287468585434799 0  -1.145334531235929 1.881885620422454 0  -0.8620560674467429 0.6361265362229395 0  -0.321688879263093 1.207848147265888 0  -0.7798551871678058 1.904240998338365 0  -0.4724954359209014 1.769587110195458 0  -0.667402576232105 2.495985359319255 0  0.5365063314111709 0.8945566719544227 0  0.1855702280441107 2.342745654422604 0  0.55510120733165 1.88540118775351 0  1.188295809121239 2.460939894898248 0  1.38587897409014 2.260870763688798 0  1.383978812419919 1.901097375082534 0  -0.2265735189171196 1.049795314962436 0  0.7387890113368257 1.246392780742437 0  0.5763234466275948 1.516457524623135 0  -0.203279258075353 0.4348372558382012 0  -1.179202350299698 1.523245956950107 0  -1.151844216720993 2.318990544544152 0  -1.410806081599612 0.6547540757597369 0  0.04190096621848406 2.108399609871347 0  0.5925649981629265 0.4343292987553075 0  0.2371113691258682 0.4102816185532077 0  1.334103818253725 2.657728219912091 0  0.9405077369493808 2.275181409651143 0  -0.633962040105568 2.669303984283053 0  -0.6045614816381242 1.904349918307267 0  1.159697673803787 2.079238591118184 0  -0.004643801590645341 1.347662554528907 0  0.3691400131247499 2.395423267764724 0  0.3855005143298051 2.055603978165229 0  0.01839821075864462 0.1788084577298442 0  -0.9568120219060965 2.61629404172056 0  0.1783135820912846 1.871116340262054 0  0.3649950158263953 2.745288921627024 0  -0.3142054567155264 0.5671999812317062 0  -0.4933549623779417 0.564740705097546 0  0.06092775470575962 2.685867440722903 0  -0.1801827362748675 2.337517890002858 0  -1.063355415037434 0.6386189748554 0  -1.205242865599393 0.8676070232612285 0  -0.4176020549597784 2.412196127179313 0  -0.3347051678178828 2.093252344225509 0  -1.427772711006951 0.2857500000000001 0  0.8835729338221293 0.1362887052191026 0  -0.6831011505337878 0.1389086130988801 0  -1.403875662049666 1.77648180985222 0  1.394165436236593 1.362588987767805 0  -0.5007942298153729 0.8700626692351643 0  -0.6093220848169366 0.7321530406295067 0  0.007534593095922887 1.760126887057542 0  -1.276272015520854 0.140425968067263 0  -0.7270478511000733 2.847016806985676 0  1.436331331726002 0.85725 0  -0.1770320080670663 1.927167796173981 0  0.7200726153501196 0.6345534912379586 0  -1.099983122078282 0.3577316115390257 0  0.2324759135153202 2.648405702327079 0  0.9054371869972004 1.582409569434113 0  0.5000672234640285 1.188708149930449 0  -0.340793734207542
[...]
<PointData  Vectors="phi"> 
<DataArray  type="Float64"  Name="phi"  NumberOfComponents="3" format="ascii">-1.0675573058367065e+00 3.0388258114014568e+00 -2.1035670027458454e-05  -1.0160085922011381e+00 -4.6541505413938554e-08 -9.7222838309440496e-06  1.0160087741465489e+00 -3.2019267842308832e-08 -1.1576241217095161e-05  1.0674894012768659e+00 3.0388345921081168e+00 -1.1171748726592070e-05  -6.0296089489671199e-06 1.5830727122446673e-08 1.0160085023994960e+00  7.9736908697663079e-05 2.9720762103441825e+00 5.7536231966008933e-01  -1.0420017226709288e+00 1.5168123702904484e+00 -1.7784996192894910e-05  1.0419871457482426e+00 1.5168161515782947e+00 -2.5805143106261858e-05  -4.6781902937025555e-02 1.5317584728334319e+00 9.6474719592261626e-01  7.1842691331640607e-01 7.3456938771760379e-08 7.1841663620993090e-01  7.3806241343988399e-01 2.2609468646937172e+00 7.2645200732552140e-01  -7.1842452305505122e-01 -2.0200585410045444e-07 7.1841817078130188e-01  -7.7630799398702210e-01 3.0463930192299000e+00 6.9849777398484236e-01  3.8990513876616489e-01 7.7769415447121537e-01 9.2829678159016693e-01  -1.0259634992693771e+00 7.5783067780410562e-01 -1.9534909991520799e-05  -7.6864798927229938e-01 2.0934008902426617e+00 6.9607811280020127e-01  -6.4718735858583831e-01 8.9204527053897120e-01 7.8410290233268087e-01  7.7636242559951774e-01 3.0464504742639873e+00 6.9877674634834108e-01  7.3105194592479850e-01 1.4674772916394774e+00 7.1810885554529547e-01  1.5821067657044080e-05 2.2920219971503526e+00 9.0415576301200828e-01  -1.0590483331358640e+00 2.2772321302569991e+00 -2.1792872936794410e-05  1.0259650854282873e+00 7.5783203969175306e-01 -3.0896657004929475e-05  1.0589953078161980e+00 2.2772409628562498e+00 -5.2707450391799677e-05  -8.4078356344825556e-01 1.4702979020303271e+00 5.9993561632390136e-01  8.5595638457307155e-01 8.9793478686807593e-01 5.6299932545150988e-01  -3.8887996638303607e-01 4.0819674933704259e-01 9.3418672984959905e-01  9.7460435636371567e-01 1.8982667175295693e+00 3.8993919237522151e-01  3.7196002873164197e-01 1.8868712186124037e+00 9.0124157269834371e-01  -4.9653237837424113e-01 2.5685670564414966e+00 8.2857932313711613e-01  3.8652723921148197e-01 3.0250732485930198e+00 6.8068071984479617e-01  9.3865922053152639e-01 -1.8143883516283054e-07 3.8880614102710415e-01  9.9042309494123881e-01 2.6357736893061170e+00 4.1293603812923368e-01  -1.0151640597236891e+00 3.0391341203569713e+00 3.9462136540789644e-01  -9.3865657183347961e-01 -3.2616371601538570e-07 3.8881403388834085e-01  -1.4078350946628479e-01 8.9251098391978656e-01 9.8630846129642158e-01  -9.6505139348970381e-01 2.5207852021494519e+00 4.5895132289454021e-01  -8.4891150976229757e-01 4.7294227968946784e-01 5.6461233928628829e-01  -3.4489681643882741e-01 1.9303228935188965e+00 9.0569559117664389e-01  -1.0510204053103953e+00 1.8968331610287406e+00 -2.4326015660285494e-05  -9.4426369923978581e-01 1.0267756343703112e+00 4.0916089511553844e-01  7.0630089981995625e-01 4.7622334050692439e-01 7.3213988052045886e-01  3.8881356016161306e-01 2.9996240177605558e-07 9.3866243309406772e-01  -4.7650904868851340e-01 1.3296939015867206e+00 8.8190189032646127e-01  6.4586054445809810e-02 4.5748204197887882e-01 1.0052740771021995e+00  1.9929986747989797e-01 1.1693285585594684e+00 9.6796124659360783e-01  3.9373643071054876e-01 2.5705975734775199e+00 8.3847599006869167e-01  1.0207585620533857e+00 3.7880963147053442e-01 -1.9541426660175612e-05  9.6303823288751955e-01 1.2900356970633802e+00 3.7889579025565173e-01  9.4511519463274085e-01 5.2852412659361703e-01 3.8747536860022097e-01  7.2995374747877873e-01 1.8641619149719371e+00 7.2479056827037003e-01  6.0848498952105401e-01 1.0963804660398180e+00 8.1177355005649698e-01  -9.9041486445684557e-01 2.1368378406530528e+00 3.6777181873697234e-01  -3.8880303663128329e-01 -5.2753881582868548e-09 9.3866048044688366e-01  -3.8639798306887541e-01 3.0251582959877017e+00 6.8081916315541324e-01  1.0150463989839908e+00 3.0391428560430755e+00 3.9461567177776907e-01  7.5649854757193047e-01 2.6481263714244019e+00 7.2206359816889276e-01  -9.9090888494957818e-01 1.7078074432871859e+00 3.3324924514243864e-01  -1.0960452075457322e-01 2.6519211547711996e+00 7.8341088904570810e-01  -1.0333424429693903e+00 1.1371546300854223e+00 -2.6697152904512723e-05  -1.0207586105437376e+00 3.7880902976044273e-01 -2.5030691805323133e-05  1.0333382381751388e+00 1.1371567526862831e+00 -9.9035782964771332e-06  1.0509868404132561e+00 1.8968393486881019e+00 -5.1390300355774121e-05  1.0645161704229507e+00 2.6579708081139222e+00 -2.2146899194961045e-05  -1.0645934912269142e+00 2.6579620441791398e+00 -2.2857572327227753e-05  -6.5178530052208683e-01 1.7437192159037596e+00 7.8209585560925265e-01  9.9378632249941090e-01 2.2677318037403138e+00 3.6938897140794325e-01  3.9374378594542037e-01 1.5006871776651753e+00 9.0904772038518877e-01  1.5650672102987304e-02 1.9368769199565070e+00 9.3903763544599195e-01  4.1043594457553156e-01 4.2358538501882265e-01 9.2512336740404422e-01  3.4524492498821990e-01 2.2316197978722827e+00 8.9000880035927399e-01  -3.4322585020572732e-01 2.2691518032456188e+00 8.8748658961817861e-01  -9.6806660888808094e-01 6.9684657275030271e-01 3.3393963595878784e-01  -9.9097889620333679e-01 1.3542965259799684e+00 3.0591027562435508e-01  -1.2403685305616453e-01 1.2165974762490384e+00 9.7576377280587534e-01  9.8990890070579596e-01 9.8722989385545956e-01 2.8251129054678731e-01  -7.2333096279229325e-01 1.1971851240900089e+00 7.2191886630054070e-01  8.5897971304593757e-01 2.6522141461102183e-01 5.4622093397057991e-01  1.9663001104360844e-01 2.7843246214553945e+00 7.3080463068363155e-01  -7.9060831981478130e-01 2.7011250499537929e+00 6.9781217713481170e-01  -3.4975416637798390e-01 1.6159025446320843e+00 9.1784648074618902e-01  9.2082412413369574e-01 1.5930206252439312e+00 4.8323018215170038e-01  -7.9470808282293715e-01 2.3966933916275028e+00 6.8309753589288447e-01  6.5712884744078881e-01 7.9754781887051895e-01 7.7614860070606351e-01  -9.7008976587331475e-01 3.0923192404620420e-01 3.1326865432771994e-01  -6.3573173451933829e-01 5.6885136588505281e-01 7.9261156280653222e-01  -3.9616100548782662e-01 7.2022978928691772e-01 9.2689163410951869e-01  8.1944014452264469e-01 1.1852058615162699e+00 6.1931761513864358e-01  -8.4343931523907711e-01 8.0748854228789924e-01 5.7887881263686436e-01  -6.9871152714875984e-01 2.8961775668084611e-01 7.3839154781803740e-01  -8.6432694331096249e-01 1.8307051451827379e+00 5.8142810576691550e-01  -1.4730623176602836e-01 2.5376023957174965e-01 1.0010759570897374e+00  1.9798379847597106e-01 2.0542596211807296e-01 9.9344740088909722e-01  5.9424783495429512e-01 2.3201887084290465e-01 8.2353683783188825e-01  -4.0710203928506311e-01 1.0329132788822175e+00 9.1664201501105924e-01  8.8524983555941061e-01 2.4473676468189907e+00 5.8521858783039837e-01  9.0807671565794024e-01 2.8345158381680915e+00 5.8504311182088631e-01  5.8050519966784242e-01 3.0449408349924445e+00 7.2692371261972089e-01  1.6685896484656101e-01 1.7065873693501712e+00 9.4621041576632592e-01  5.6317336192396239e-01 2.0737908076627756e+00 8.3031570720135173e-01  1.0272107541985502e+00 1.7071253836773255e+00 1.9872218660857588e-01  8.8777143840182926e-01 2.0973522163777480e+00 5.6080796158467860e-01  -1.0557220279607273e+00 3.0388406623278543e+00 1.9929385575017081e-01  -1.0345526700918113e+00 2.7538989369969133e+00 2.8434093928393889e-01  1.0488450913508196e+00 2.8266071506640307e+00 2.2027683733909598e-01  9.8258965523840491e-01 2.6364245933286329e-01 2.7002520864776297e-01  1.4110380232372197e-01 8.9592382610029087e-01 9.8615582608301344e-01  -5.6153209944258853e-01 2.8318405094073453e+00 7.7253524225988179e-01  1.0449800761500878e+00 2.4742846732530097e+00 2.0019518385191343e-01  -1.5096522491895725e-01 6.2237140045356731e-01 9.9279142672165310e-01  -1.0326902738140933e+00 2.3702725854680677e+00 2.4945977018208509e-01  5.5255794458710283e-01 1.7023535872959792e+00 8.3994048270450883e-01  1.0552308654351346e+00 2.0869916483472428e+00 -2.2948099698670233e-05  5.3997014510646968e-01 2.7878035930500542e+00 7.8330296559538581e-01  -8.4477387100507773e-01 -6.5927947537471296e-08 5.6446172529371152e-01  -5.8500456932673095e-01 2.3296630367539883e+00 8.1769305215541666e-01  1.2385128606396410e-01 2.5248766545157943e+00 8.4228945906256913e-01  -9.2866800967791596e-01 3.0412523492783556e+00 5.7349201324679344e-01  -5.5004030602648024e-01 2.0748283027997907e+00 8.3614625333680814e-01  -1.0081761472395891e+00 9.0293307213384344e-01 2.0199979490397066e-01  -8.9632607548294918e-01 1.2467566847924747e+00 5.1074221209517900e-01  -1.6808227736270176e-01 2.0992358729518603e+00 9.2054664965422384e-01  -9.4802561082531955e-01 2.7576078623410023e+00 5.1630530364896576e-01  -1.6327915913959376e-01 1.7710753295114587e+00 9.4269631859934666e-01  -3.1227469381708350e-01 2.7973040485088019e+00 7.5324242452703372e-01  5.4352342445555568e-01 2.3742167068638009e+00 8.3272492539915066e-01  -6.6927308394354890e-01 1.4275477061774879e+00 7.6860981934698813e-01  8.0380282584332186e-01 6.7218037673992626e-01 6.2880634397021018e-01  -8.5001325453726806e-01 2.3645393375574947e-01 5.5950554040866463e-01  9.9334393484054428e-01 7.3757753746413268e-01 2.5315970324602238e-01  5.3983280243798781e-01 6.0958116689381392e-01 8.5779254588861864e-01  5.6154660963770120e-01 1.3348391414129503e+00 8.3928037341824424e-01  -5.1210131775606027e-01 2.0376937674628254e-01 8.7635042146774966e-01  -2.6999892499596601e-01 2.4928364411761867e+00 8.5853115297291427e-01  -1.0230602490848886e+00 5.6828272099130250e-01 -1.5108397268654523e-05  -2.4530599048756463e-01 1.4120836194426001e+00 9.4985819702439356e-01  2.5481639115249644e-01 5.9164597966191612e-01 9.7383331980695031e-01  1.0001060170300935e+00 1.4973390159656093e+00 2.8762149252804292e-01  1.0375560424355283e+00 1.3269425075448551e+00 -1.4558559345284288e-05  -8.9485529673826780e-01 2.2304241475173572e+00 5.5776041289841605e-01  8.6858191740595625e-01 1.3920725973481654e+00 5.5927250593740951e-01  -9.9647662083486899e-01 -4.1260355772774044e-07 1.9820715037349965e-01  3.9597436368627131e-01 1.0246813166463118e+00 9.2101521871376557e-01  1.6910362636666534e-01 1.4123680072522078e+00 9.6171615660663090e-01  -1.0234039608817234e+00 1.9309000360419546e+00 2.4225523244655056e-01  2.1398614684681658e-01 2.0484444169905602e+00 9.2009249558959338e-01  1.0230618464877528e+00 5.6828365661188407e-01 -2.6540746559688683e-05  1.0280311900901453e+00 2.0733299866755504e+00 2.3785433705883743e-01  -8.2687070976484933e-01 1.0309943823843131e+00 6.0630439359494770e-01  -1.0079029981938250e+00 1.1453033212894910e+00 2.2630516041099549e-01  -1.0182969604162446e+00 1.8940639928979552e-01 -3.3569511205338982e-05  9.2386900108567838e-01 1.0957500700943834e+00 4.5489734098092327e-01  4.0838050813928073e-01 2.1127623795826203e-01 9.2831118402075463e-01  -1.0552776486719002e+00 2.0869848820306758e+00 -3.1283362313819902e-05  8.4571710860258842e-01 4.7411456035118338e-01 5.6932482956706876e-01  1.0024674189222305e+00 4.5801853352325439e-01 1.9584924448178764e-01  9.1751692892257797e-01 7.2699207538825694e-01 4.5372960331339046e-01  3.6952316460975387e-01 1.2905549516825729e+00 9.2323042281703693e-01  8.7497660860336812e-01 1.7959036467992318e+00 5.6534680045140573e-01  -1.7252731059550985e-03 1.0481363563042745e+00 9.8899579498866796e-01  1.0130460735714113e+00 1.1800504522479580e+00 2.0629267285261915e-01  -1.0041909509899596e+00 4.7367269002583112e-01 1.8792457200770926e-01  5.9218471784024090e-02 6.9177335281463492e-01 9.9967717229262443e-01  -9.4602942335709517e-01 4.9751732574133062e-01 3.8433655806447720e-01  -5.8649111249754193e-01 1.0828764741267174e+00 8.2618489347361701e-01  -9.0838927643186673e-01 2.0260344959105869e+00 5.2597550048246844e-01  -1.0665455517523457e+00 2.8483928575509809e+00 -3.2530675343255286e-05  7.5016021179716086e-01 1.0109258493385236e+00 6.9390598571541939e-01  7.5734400140227320e-01 2.8481322443461319e+00 7.1737432979021931e-01  -5.1806412479611896e-01 1.5232964685991019e+00 8.5940459788906720e-01  7.3407308709849906e-01 2.0625299247920261e+00 7.2494124855842668e-01  7.1852048337812835e-01 1.6655832152670447e+00 7.3152443036845061e-01  -1.9740642672125033e-01 2.9947369548832872e+00 6.1685611238528260e-01  -5.4417714032394598e-03 2.8040418098076265e+00 6.9290038463168169e-01  -1.0426503813384640e+00 2.1823134229337855e+00 1.7752096816165189e-01  9.9647684796730263e-01 -5.2616809616413956e-07 1.9820994666674421e-01  9.2862677839177077e-01 3.0412420313320552e+00 5.7353242633203383e-01  1.9820922103434102e-01 8.1083256281979416e-07 9.9648521659048894e-01  -1.9821714708362798e-01 4.2001571144028601e-07 9.9648006785147614e-01  5.6445634219007468e-01 1.2526009137813362e-07 8.4477651161797251e-01  1.9752813429961702e-01 2.9946247202905933e+00 6.1673394729111286e-01  8.4477624592574396e-01 -4.4543576208935383e-08 5.6446094455215123e-01  1.0556464635295799e+00 3.0388425005183710e+00 1.9930261778331115e-01  -5.8040801194285319e-01 3.0449765009985952e+00 7.2689003522457674e-01  -5.6446133310276636e-01 7.8109516197674402e-08 8.4476956804956105e-01  -6.9536333156216976e-02 2.4728444068217006e+00 8.5952193358479412e-01  9.9986686508941280e-01 2.8295859365339338e+00 4.1119367169713789e-01  5.8489206981841446e-01 2.6000089337579122e+00 8.0465410692889583e-01  7.4755166615653923e-01 2.4544520355328103e+00 7.2472342957889235e-01  8.9648873339602353e-01 2.6412211436582851e+00 5.8521938199937906e-01  3.6936277022181829e-01 1.6931202476830931e+00 9.0960934305836061e-01  -8.5864123696623607e-01 2.8744049967215197e+00 6.4319422840180718e-01  -3.3071623319296750e-01 1.8829558186037362e-01 9.5849625145769546e-01  -1.0486542465743447e+00 2.5688248024397606e+00 1.8987407144077614e-01  -9.0611569296457628e-01 1.6433804273803128e+00 5.1101274899597449e-01  -1.0206229701549154e+00 1.5393133120044171e+00 2.1062047050689794e-01  -1.0465382853127962e+00 1.7067757163313806e+00 -3.5085809410508521e-05  -7.8440500743696751e-01 1.6462451958533477e+00 6.6988589300519541e-01  -5.6463132300104468e-01 3.9066211739060636e-01 8.4327528746643332e-01  1.0664309724608592e+00 2.8484050166469173e+00 -2.0857254831605847e-05  -1.0294403416068498e+00 9.4745357154591203e-01 -1.7773985749583320e-05  1.0182932677031515e+00 1.8940613048107346e-01 -2.9422599482919903e-05  1.0465111184474625e+00 1.7067807357284790e+00 -2.1184981797651590e-05  1.0294424424837147e+00 9.4745495385631084e-01 -5.0172128949220584e-05  -1.0375657364805997e+00 1.3269397118997861e+00 -3.2500380643611775e-05  1.0621122875211779e+00 2.4675717879007775e+00 -1.6131080810705087e-05  -1.0621641299307070e+00 2.4675643819100324e+00 -1.9502631313836637e-05  7.3764308549656865e-01 2.8719332989025670e-01 7.0006670179073649e-01  -9.6090289814096952e-01 1.8754745723069455e+00 4.1980637854192077e-01  -7.7660793322850863e-01 6.3515457375549256e-01 6.6066622901401328e-01  -3.2266964077185029e-01 1.2130142880428691e+00 9.3951435866925392e-01  -7.4166638058975032e-01 1.9028779266052398e+00 7.1554864414423991e-01  -4.7116463226711458e-01 1.7738843495104539e+00 8.7409191039805412e-01  -6.6443439899918921e-01 2.4970935458521297e+00 7.7754306451703303e-01  5.2292770130431798e-01 8.9664957970054560e-01 8.6520171323102624e-01  1.8878191382198842e-01 2.3489360206217822e+00 8.9130998913575099e-01  5.4983423647433805e-01 1.8883508485550149e+00 8.3876825973564828e-01  9.9553570504807709e-01 2.4529451760561285e+00 3.8096643586008605e-01  1.0425519912138856e+00 2.2523630645783754e+00 1.8702593569178610e-01  1.0337244718390985e+00 1.8932415257665467e+00 1.8889677529391802e-01  -2.2846323140054978e-01 1.0551883349108746e+00 9.6691136334008454e-01  6.9638230505829213e-01 1.2461903649321926e+00 7.4597945024730439e-01  5.6426833158391265e-01 1.5187975825265725e+00 8.3595866002448271e-01  -2.0484236022315458e-01 4.3741523429989926e-01 9.8785545130174734e-01  -9.6493304628600007e-01 1.5174799052297021e+00 3.8803725182472881e-01  -9.7692945033276934e-01 2.3115481685920996e+00 4.1473201208909038e-01  -1.0111476695031709e+00 6.5124621758281598e-01 1.6205609664778520e-01  4.2662839554365804e-02 2.1164556086836099e+00 9.2464499437629277e-01  5.6870808625382296e-01 4.3511027104056804e-01 8.4048287911695019e-01  2.3840045546980751e-01 4.1262189814583966e-01 9.8115335045834162e-01  1.0414671188017957e+00 2.6488713015112544e+00 2.3909071800792697e-01  8.6628382256172032e-01 2.2703938146168117e+00 5.9886688830940293e-01  -6.3504789146808394e-01 2.6713729005768938e+00 7.8214944506707706e-01  -5.9501164974344489e-01 1.9063798993308378e+00 8.1593239213583413e-01  9.7261912406608586e-01 2.0722518178591325e+00 4.0675097584012360e-01  -4.7166617140406196e-03 1.3549445195243934e+00 9.7508042978341469e-01  3.7459886233886869e-01 2.4012497626064420e+00 8.6968036406332994e-01  3.8924507133163755e-01 2.0615408344043873e+00 8.8989078757605866e-01  1.8660019208988375e-02 1.8000515983637580e-01 1.0128827501679438e+00  -8.9168406117630317e-01 2.6105444945457550e+00 5.8908462133229600e-01  1.8088646621665902e-01 1.8789240645469700e+00 9.3431879414266639e-01  3.6444087518646956e-01 2.7407097604800708e+00 7.8593951369218651e-01  -3.1406570123120997e-01 5.7001200567487886e-01 9.5808063677904520e-01  -4.8238181098795146e-01 5.6644303862469159e-01 8.8996756511438968e-01  6.1424639653264800e-02 2.6672408936347765e+00 7.7113830176571663e-01  -1.8329215424471501e-01 2.3437713758428362e+00 8.9235284358822897e-01  -8.9467791564580978e-01 6.3639039450354629e-01 4.9392096114539047e-01  -9.6006996057982008e-01 8.6382983306914207e-01 3.6348134437516977e-01  -4.2324916516324557e-01 2.4176582244698523e+00 8.6040813989249076e-01  -3.3902018555764868e-01 2.0998409075756279e+00 8.9882270536866604e-01  -1.0091508320719376e+00 2.8415112751954369e-01 1.4505439591783284e-01  7.8601763562263571e-01 1.3604620888727645e-01 6.4460494230332832e-01  -6.4157243283326082e-01 1.3899576078411269e-01 7.8773776865003120e-01  -1.0341561613724277e+00 1.7688484697958704e+00 1.6897329363015223e-01  1.0224180381217860e+00 1.3561990766778420e+00 1.7868565540916553e-01  -4.9068171739106031e-01 8.7247521482619783e-01 8.8243730649939511e-01  -5.8493872742613484e-01 7.3326681451666098e-01 8.2879378140047433e-01  7.6659553275230203e-03 1.7683695470631655e+00 9.5072762480394535e-01  -9.7358695393254036e-01 1.3972848936881854e-01 2.9512068407740527e-01  -7.2229112705356024e-01 2.8469084639020683e+00 7.3415666473355001e-01  1.0183930014848459e+00 8.5275127235513792e-01 1.3637420500586042e-01  -1.7968471027954874e-01 1.9350136247701650e+00 9.3088892472619966e-01  6.7390639329309510e-01 6.3464961411177145e-01 7.6183579607054530e-01  -9.0887727397354734e-01 3.5634390728973164e-01 4.6128904552274863e-01  2.3354765393276541e-01 2.6420556949230996e+00 8.0463254804085915e-01  8.2300364602842924e-01 1.5794493878233899e+00 6.2527442824080981e-01  4.9214919184897304e-01 1.1917680405304705e+00 8.7716702944611147e-01  -3.4230334674124074e-01 2.6421258890596455e+00 8.1732925255625544e-01  8.2713865248574481e-01 1.9617766400529870e+00 6.3246764299848546e-01  9.5210182855518011e-01 1.7431310456734124e+00 4.3053667571475107e-01  -7.3708851254080132e-01 4.5671874094731629e-01 7.0175528114483732e-01  2.1191164826192510e-01 7.4893132096436099e-01 9.7941952366853402e-01  -6.5932446293107994e-01 2.1870347027401942e+00 7.7940619760464813e-01  -5.9907224555961180e-01 1.2437516360935668e+00 8.1737502240700055e-01  -7.1371534240123458e-01 1.0331389370867872e+00 7.2913287411823047e-01  -7.7306062240918216e-01 1.3437640823866381e+00 6.7544547791212362e-01  9.3429766508159207e-01 9.3918690394158588e-01 4.2707779768325244e-01  -9.6121756628901556e-01 1.1822764867435411e+00 3.7723780706441107e-01  8.9690405186422173e-01 1.2540248606101470e-01 4.7911229992437732e-01  9.1369695319511612e-01 3.8489936158160809e-01 4.5239268655482623e-01  -6.4745045758359987e-01 1.5845035279316286e+00 7.8475201934243832e-01  9.4474111649173931e-01 1.4465584157499785e+00 4.2922459112295025e-01  -9.1189433771201700e-01 2.39105669639954