<?xml version="1.0"?>
<VTKFile type="UnstructuredGrid"  version="0.1"  >
<UnstructuredGrid>
<Piece  NumberOfPoints="758" NumberOfCells="1386">
<Points>
<DataArray  type="Float64"  NumberOfComponents="3"  format="ascii">-1.570796326794897 3.048 0  -1.570796326794897 0 0  1.570796326794897 0 0  1.570796326794897 3.048 0  0 0 0  0 3.048 0  -1.570796326794897 1.524 0  1.570796326794897 1.524 0  -0.04609926118424437 1.524 0  0.7853981633974483 0 0  0.7623485328053261 2.262242601661362 0  -0.7853981633974483 0 0  -0.7853981633974483 3.048 0  0.392699081698724 0.7745759241961347 0  -1.570796326794897 0.762 0  -0.8084477939895706 2.0955 0  -0.68277245543452 0.8915343570675713 0  0.7853981633974483 3.048 0  0.778743707341909 1.468410948960538 0  2.780093748954961e-16 2.285302774973185 0  -1.570796326794897 2.286 0  1.570796326794897 0.762 0  1.570796326794897 2.286 0  -0.9375370967763674 1.47348297960658 0  0.9831575747762593 0.9003629142671278 0  -0.3926990816987241 0.4064697549061488 0  1.177419588818055 1.905 0  0.3692901340097942 1.880893989147954 0  -0.4920225169641509 2.564371687128368 0  0.3926990816987241 3.048 0  1.178097245096172 0 0  1.155705348811136 2.643920532523289 0  -1.178097245096172 3.048 0  -1.178097245096172 0 0  -0.1391296372266528 0.8873724190154949 0  -1.10527745318919 2.528282743051346 0  -0.9817477042468103 0.4742759268549471 0  -0.3416666987802651 1.923944646262223 0  -1.570796326794897 1.905 0  -1.156555306160469 1.030861936336814 0  0.7648449098493205 0.4764142032227 0  0.3926990816987241 0 0  -0.4820376416180818 1.326151321396512 0  0.06374421723344185 0.4545169930886408 0  0.1972735722393064 1.163324878565267 0  0.3900417218314142 2.566922767651637 0  1.570796326794897 0.381 0  1.188877612935585 1.295195418509834 0  1.179914028402171 0.5308585702661928 0  0.7660075594126428 1.865233039449035 0  0.6330293131838399 1.095171663968746 0  -1.201232463242587 2.144287146570887 0  -0.3926990816987241 0 0  -0.3926990816987241 3.048 0  1.178097245096172 3.048 0  0.7684409382397209 2.649499271873753 0  -1.236954997304436 1.7145 0  -0.1088573452899617 2.666651387486592 0  -1.570796326794897 1.143 0  -1.570796326794897 0.381 0  1.570796326794897 1.143 0  1.570796326794897 1.905 0  1.570796326794897 2.667 0  -1.570796326794897 2.667 0  -0.6730839067294777 1.743003792473746 0  1.199831389396789 2.275437921225198 0  0.3936837537618041 1.495643752599615 0  0.01539369169800942 1.928544709491661 0  0.4156551272669651 0.4219033286010089 0  0.3401546043708642 2.225103550856524 0  -0.3379897306391274 2.262671266279809 0  -1.23624174049596 0.7000907110925838 0  -1.265224057170889 1.360131453617764 0  -0.1224339018241312 1.210043725539656 0  1.289286200625578 0.9918698881707442 0  -0.7751142346211329 1.197848666814478 0  1.003546186550495 0.2660297686099683 0  0.1963495408493621 2.808538634159524 0  -0.8079023568959116 2.703551618159924 0  -0.3480226984353056 1.610059855391589 0  1.075147893506229 1.598068412087719 0  -0.8290627893979112 2.399544545867518 0  0.6965048925255637 0.7972100472372819 0  -1.257765094876752 0.3107645483825858 0  -0.6724835324263325 0.5684215760013651 0  -0.3995059642389676 0.7173610149075536 0  0.9136951972244611 1.187564504803626 0  -0.964259350608907 0.8095514380783081 0  -0.7565990314517038 0.2897049735129544 0  -0.9603859887840651 1.834914433810327 0  -0.1457055965762301 0.2521630699436873 0  0.1963495408493621 0.2041911848053476 0  0.6241974196550791 0.231695999252114 0  -0.4098815011312292 1.029160072548571 0  0.9592800715482012 2.452820690856482 0  0.9648684169153161 2.840751931000357 0  0.5890486225480862 3.048 0  0.164631037784102 1.698913854044779 0  0.5664480837073581 2.070920238540226 0  1.374107957806476 1.7145 0  0.9861079629544779 2.102471438422718 0  -1.374446785945534 3.048 0  -1.288827800789186 2.762781313597598 0  1.353232957571468 2.835634774483438 0  1.302158670506274 0.2650078124691045 0  0.1394669809465775 0.8907702620243092 0  -0.5631487221059602 2.830992231257464 0  1.372837635547072 2.483038902756259 0  -0.1493395228831287 0.618617259260858 0  -1.32327048447753 2.378769394323546 0  0.56080204725298 1.699622905297025 0  1.570796326794897 2.0955 0  0.5403456747786348 2.786446773498672 0  -0.9817477042468103 0 0  -0.5847039960246873 2.326882432521036 0  0.1225428891326576 2.526494255738436 0  -0.9817477042468103 3.048 0  -0.5522901559753841 2.071668786267058 0  -1.370864794258017 0.9075071715671403 0  -1.043891045637083 1.250611220450313 0  -0.1652643923634778 2.09141301924679 0  -1.044446740946883 2.764982067459552 0  -0.1610370079820225 1.763280243096074 0  -0.3136912237752232 2.810498886211121 0  0.5400974078002052 2.370472734822523 0  -0.7009161718414544 1.427243880175582 0  0.902907438200502 0.6735032943420574 0  -0.9879196222361604 0.2371379634274736 0  1.319268546233604 0.7412771512308228 0  0.5578373583610097 0.608241627784878 0  0.5756483102040615 1.332636919938113 0  -0.5281701577409 0.2032348774530744 0  -0.266729509930448 2.489223923247521 0  -1.570796326794897 0.5715 0  -0.2430656531629531 1.405631921096758 0  0.253622337931223 0.5884397663452474 0  1.284044721043478 1.50372037617638 0  1.570796326794897 1.3335 0  -0.9904333867980613 2.235882060371517 0  0.9871146764618406 1.395690276854986 0  -1.374446785945534 0 0  0.3981951765262902 1.020833864419675 0  0.1670583512016766 1.405384478716078 0  -1.330327693484763 1.938638984813805 0  0.2106653067452682 2.040805097078886 0  1.570796326794897 0.5715 0  1.334822181490566 2.081373939821734 0  -0.9303227889097604 1.033236710715967 0  -1.34639228476592 1.150776798768373 0  -1.570796326794897 0.1905 0  1.106697207481837 1.099709897393925 0  0.4137866939027022 0.2104288000383385 0  -1.570796326794897 2.0955 0  0.9761377489246634 0.4754251272674608 0  1.377108465632662 0.4605024587280874 0  1.108114944719677 0.7297638044096917 0  0.3695908229138113 1.285681859811955 0  0.9799112840676307 1.800306505551499 0  -0.001696842075803034 1.042028929293442 0  1.366537356420357 1.185723700290463 0  -1.385029840108318 0.47625 0  0.05842649915411911 0.6874537157920781 0  -1.183268988745763 0.4997334438341218 0  -0.6073502281622543 1.081347079085406 0  -1.026941765261019 2.031536576622642 0  -1.570796326794897 2.8575 0  0.8159726599830506 1.011928543199529 0  0.7652782693277244 2.849245002237192 0  -0.5252326280373281 1.520125074885265 0  0.7648326174724897 2.063743853392348 0  0.757099741434616 1.666331708950521 0  -0.1963495408493621 3.048 0  -0.005410422648647092 2.843333256403111 0  -1.395368347654653 2.19075 0  1.374446785945534 0 0  0.9817477042468103 3.048 0  0.1963495408493621 0 0  -0.1963495408493621 0 0  0.5890486225480862 0 0  0.1963495408493621 3.048 0  0.9817477042468103 0 0  1.374446785945534 3.048 0  -0.5890486225480862 3.048 0  -0.5890486225480862 0 0  -0.06865319188571758 2.471928549109083 0  1.159049337209348 2.838090892449816 0  0.5817075150535711 2.596909954318943 0  0.7656515661107315 2.455866896253367 0  0.9620790410056582 2.647119292933887 0  0.3676829480103987 1.68739481709134 0  -0.8886101495223063 2.878912500124773 0  -0.3317793704126089 0.1873756770788371 0  -1.383208664444332 2.577695923010364 0  -1.043597917648523 1.648216005744782 0  -1.362178343413552 1.546177620526679 0  -1.570796326794897 1.7145 0  -0.8462722504471433 1.648434957877788 0  -0.588076822054871 0.3899352838051667 0  1.570796326794897 2.8575 0  -1.570796326794897 0.9525 0  1.570796326794897 0.1905 0  1.570796326794897 1.7145 0  1.570796326794897 0.9525 0  -1.570796326794897 1.3335 0  1.570796326794897 2.4765 0  -1.570796326794897 2.4765 0  0.8103777117362174 0.287468585434799 0  -1.145334531235929 1.881885620422454 0  -0.8620560674467429 0.6361265362229395 0  -0.321688879263093 1.207848147265888 0  -0.7798551871678058 1.904240998338365 0  -0.4724954359209014 1.769587110195458 0  -0.667402576232105 2.495985359319255 0  0.5365063314111709 0.8945566719544227 0  0.1855702280441107 2.342745654422604 0  0.55510120733165 1.88540118775351 0  1.188295809121239 2.460939894898248 0  1.38587897409014 2.260870763688798 0  1.383978812419919 1.901097375082534 0  -0.2265735189171196 1.049795314962436 0  0.7387890113368257 1.246392780742437 0  0.5763234466275948 1.516457524623135 0  -0.203279258075353 0.4348372558382012 0  -1.179202350299698 1.523245956950107 0  -1.151844216720993 2.318990544544152 0  -1.410806081599612 0.6547540757597369 0  0.04190096621848406 2.108399609871347 0  0.5925649981629265 0.4343292987553075 0  0.2371113691258682 0.4102816185532077 0  1.334103818253725 2.657728219912091 0  0.9405077369493808 2.275181409651143 0  -0.633962040105568 2.669303984283053 0  -0.6045614816381242 1.904349918307267 0  1.159697673803787 2.079238591118184 0  -0.004643801590645341 1.347662554528907 0  0.3691400131247499 2.395423267764724 0  0.3855005143298051 2.055603978165229 0  0.01839821075864462 0.1788084577298442 0  -0.9568120219060965 2.61629404172056 0  0.1783135820912846 1.871116340262054 0  0.3649950158263953 2.745288921627024 0  -0.3142054567155264 0.5671999812317062 0  -0.4933549623779417 0.564740705097546 0  0.06092775470575962 2.685867440722903 0  -0.1801827362748675 2.337517890002858 0  -1.063355415037434 0.6386189748554 0  -1.205242865599393 0.8676070232612285 0  -0.4176020549597784 2.412196127179313 0  -0.3347051678178828 2.093252344225509 0  -1.427772711006951 0.2857500000000001 0  0.8835729338221293 0.1362887052191026 0  -0.6831011505337878 0.1389086130988801 0  -1.403875662049666 1.77648180985222 0  1.394165436236593 1.362588987767805 0  -0.5007942298153729 0.8700626692351643 0  -0.6093220848169366 0.7321530406295067 0  0.007534593095922887 1.760126887057542 0  -1.276272015520854 0.140425968067263 0  -0.7270478511000733 2.847016806985676 0  1.436331331726002 0.85725 0  -0.1770320080670663 1.927167796173981 0  0.7200726153501196 0.6345534912379586 0  -1.099983122078282 0.3577316115390257 0  0.2324759135153202 2.648405702327079 0  0.9054371869972004 1.582409569434113 0  0.5000672234640285 1.188708149930449 0  -0.340793734207542
[...]
<PointData  Vectors="phi"> 
<DataArray  type="Float64"  Name="phi"  NumberOfComponents="3" format="ascii">-1.2003624013097565e+00 3.0357179503414060e+00 5.6639449669982722e-04  -1.0160101673580657e+00 1.1040598966768158e-07 -9.6217337820758540e-06  1.0160102774309514e+00 9.1354187927658813e-08 -1.1449689906230819e-05  1.2004569503134075e+00 3.0356902488828119e+00 4.7212777444547403e-04  -6.6586538869800206e-06 1.5260883859552687e-06 1.0160232375080964e+00  -1.2216139839847436e-03 2.4810445565430808e+00 -6.0873587239375271e-01  -1.0822700965792025e+00 1.5106811173978711e+00 -1.6967912371692538e-05  1.0828690277382060e+00 1.5105814337505890e+00 -2.6675277914648049e-05  -4.7147704952202454e-02 1.2958274076481651e+00 3.5506285781141883e-01  7.1842688908383001e-01 -2.3780883986207263e-07 7.1841636407465292e-01  5.9124914345607504e-01 2.1555707943956031e+00 2.6486542236360650e-01  -7.1842412568973824e-01 3.6968869434468131e-07 7.1841823001556626e-01  -5.8308031968209817e-01 2.8090553961493825e+00 -1.7050518748924429e-01  3.8974814348151160e-01 7.7348920794179654e-01 8.8965279930334029e-01  -1.0223497067844158e+00 7.5641516667726361e-01 -2.2150149700697557e-05  -6.4539289916938236e-01 2.0313851347724889e+00 3.7433875164791852e-01  -6.6372369712213408e-01 8.9499527660628497e-01 7.8617904981766962e-01  5.8223249938035537e-01 2.8082837299034282e+00 -1.7262864893052624e-01  7.0124807836134584e-01 1.4616205363616608e+00 6.2972521319222929e-01  -8.8176411905500169e-04 1.8975340951665580e+00 -1.1444349054745816e-01  -1.1789534708801497e+00 2.2684871025200857e+00 5.5095180897184507e-05  1.0224073694515408e+00 7.5638971555844936e-01 -3.0541036524161501e-05  1.1796646582814379e+00 2.2683302298337624e+00 -7.9221687795613994e-05  -8.5128800032203433e-01 1.4740277348463811e+00 5.7609430575000575e-01  8.7649336740860517e-01 8.9845298442255728e-01 5.7091677642766481e-01  -3.9451617434567798e-01 4.0860375029010942e-01 9.3570666381339651e-01  1.0101131987965815e+00 1.8979600069705491e+00 3.6914672075933824e-01  3.2884148539562086e-01 1.6713710798030914e+00 2.5568074830021631e-01  -4.0248070640502515e-01 2.2790204946029955e+00 -7.3394200050713912e-02  3.2580556265129251e-01 2.6239463331757520e+00 -4.2036142110956320e-01  9.3865791324989201e-01 -4.1384537369331543e-07 3.8880540207962100e-01  9.0002142307097055e-01 2.6075809242797621e+00 2.1762791010962809e-01  -8.7122525042952315e-01 2.9750191023670318e+00 5.4669559048482419e-02  -9.3865746994302168e-01 -1.2924648614532481e-07 3.8881449443938965e-01  -1.3854551477482568e-01 8.2446966815721712e-01 7.8477512722120268e-01  -8.6788496659655412e-01 2.4924221431450877e+00 2.5716713617331832e-01  -8.5484646548332965e-01 4.7274518174069735e-01 5.6777995669164683e-01  -3.0928825363315127e-01 1.6942701938208058e+00 2.1529375017180805e-01  -1.1358885533538008e+00 1.8878657552694285e+00 -2.7054484859232820e-05  -9.6291460763579528e-01 1.0258423241081447e+00 4.1369739059480592e-01  7.1542911888761496e-01 4.7661297445475836e-01 7.3774480504135331e-01  3.8881432844561620e-01 1.3979661471470169e-06 9.3866850303764815e-01  -4.3452003661883309e-01 1.2687068626454627e+00 6.3833687090545510e-01  6.5262745261917415e-02 4.5581088062566466e-01 9.9085689452601822e-01  1.9261600691723665e-01 1.0441566611833544e+00 6.1774410002980473e-01  3.3487823175726900e-01 2.2329352604599682e+00 -1.3992925572942755e-01  1.0193899047472967e+00 3.7825910365948096e-01 -1.9521908056040820e-05  9.9630543827354745e-01 1.2885049071638475e+00 3.8283812763362346e-01  9.4785417080604473e-01 5.2790575428050779e-01 3.8892454204044946e-01  6.3392814716164558e-01 1.8181885892171130e+00 4.6912222653296271e-01  6.0233132656158694e-01 1.0946623447707089e+00 7.6447500404044610e-01  -1.0122402170561635e+00 2.1347334179904447e+00 3.2764985147631104e-01  -3.8880227687623359e-01 -2.4639968268061108e-07 9.3865983581376389e-01  -3.2757536401821485e-01 2.6245247437367603e+00 -4.1900316857614095e-01  8.7064652025423095e-01 2.9743156642308599e+00 5.2234986311977975e-02  5.7636898831283179e-01 2.4778668331411873e+00 5.0468827993252217e-02  -1.0439445662490079e+00 1.7055041320691771e+00 3.3051712571618364e-01  -1.0933142734280696e-01 2.2106994166662832e+00 -3.3320985729546349e-01  -1.0381441960371875e+00 1.1342817229468767e+00 -2.2856405871949222e-05  -1.0193934281009265e+00 3.7827125468068540e-01 -2.4649065944525167e-05  1.0383935649737492e+00 1.1342321459331015e+00 -1.3340671882391033e-05  1.1365941427300352e+00 1.8877284712915243e+00 -5.0281672935543018e-05  1.2014341509376019e+00 2.6520477595786218e+00 -8.2283572246499086e-05  -1.2005854891763803e+00 2.6521726768379565e+00 4.2043541699288538e-05  -5.6467136147882857e-01 1.6841316099132451e+00 4.9756869931354269e-01  9.9685823069689194e-01 2.2633570640473044e+00 3.0789164846245898e-01  3.5387648634974672e-01 1.3735761341310746e+00 4.9890574721216968e-01  1.4863344994292876e-02 1.6139479124243188e+00 1.0302769762753129e-01  4.1670163362920870e-01 4.2408010612616320e-01 9.2735415332589355e-01  3.0500509769191375e-01 1.9345973458732262e+00 3.3003348685843217e-02  -3.0448691618693224e-01 1.9642221564555902e+00 1.0317381479290337e-02  -9.7118189130538612e-01 6.9592637337132912e-01 3.3536566678141055e-01  -1.0251186692403773e+00 1.3514895394049034e+00 3.0841884077666237e-01  -1.2261956265436938e-01 1.0624559835577589e+00 5.6697278711558508e-01  9.9847555724750536e-01 9.8553329532342637e-01 2.8411872201328414e-01  -7.2999590826531058e-01 1.2004769103368227e+00 7.0030208271296768e-01  8.6145354378203043e-01 2.6498775892344245e-01 5.4758433746841628e-01  1.8390462121194187e-01 2.3492008457414202e+00 -3.8694460301477934e-01  -6.0265158323391554e-01 2.5402828072153816e+00 4.4907605554923104e-02  -3.1702260736611038e-01 1.4466767443798447e+00 4.0769168656761712e-01  9.5087048560631204e-01 1.5952300967695814e+00 4.7193362330947480e-01  -6.3376445993302555e-01 2.2974240133854376e+00 2.2657101344261568e-01  6.7525968418808580e-01 7.9981991999014579e-01 7.8401927207261257e-01  -9.7063786547706821e-01 3.0882789534286864e-01 3.1374003621989255e-01  -6.4818932182553823e-01 5.6977639181569384e-01 8.0043282572465468e-01  -4.0020687175396313e-01 7.1915784588217191e-01 9.0670887601334982e-01  8.4519864896638730e-01 1.1885643145025879e+00 6.2116095791586146e-01  -8.6046472415883768e-01 8.0786974029502923e-01 5.8632453599493140e-01  -7.0326072447636701e-01 2.8966903934737381e-01 7.4119905616518633e-01  -8.2973119100899040e-01 1.8263595701514621e+00 4.9091401661560813e-01  -1.4816763093080862e-01 2.5373968752609505e-01 9.9575963173489646e-01  1.9890923661621251e-01 2.0554354005012959e-01 9.9003019519787061e-01  5.9786501052988550e-01 2.3215864484568619e-01 8.2571242475294382e-01  -3.8865147621564416e-01 1.0007922744833377e+00 7.7480635193013769e-01  7.3868687454527193e-01 2.3877862102483491e+00 2.5349538788551218e-01  7.1221994311208603e-01 2.7186682853226416e+00 5.3510012910006906e-02  4.5560419237622535e-01 2.7155342163868395e+00 -2.9740888263410437e-01  1.6123969560024795e-01 1.4536624876111528e+00 2.7176996636023459e-01  4.6064445781529473e-01 1.9132691879170882e+00 2.6077232113473620e-01  1.0896061713093999e+00 1.7010122126279226e+00 1.9878159482875626e-01  8.1386937971515716e-01 2.0803110086605865e+00 4.0400044964940313e-01  -1.0579320047778462e+00 3.0248540622698590e+00 1.1090862024617144e-01  -1.0157156989612754e+00 2.7399113066020413e+00 1.8215230104374128e-01  1.0679728946209086e+00 2.8163935735974746e+00 1.5263890373441230e-01  9.8279867428439582e-01 2.6329054423101889e-01 2.7032393642853880e-01  1.3845245566184139e-01 8.2675333822448560e-01 7.8203312808517311e-01  -4.4083345425991044e-01 2.5298061401481213e+00 -1.8308879700718281e-01  1.1203724407608646e+00 2.4691695599414758e+00 1.8158357888283999e-01  -1.5113656202703865e-01 6.1510011538213716e-01 9.4958455703762934e-01  -1.0904206947553583e+00 2.3657420147761670e+00 2.2456252181680397e-01  4.7459438579509172e-01 1.6064940687679727e+00 4.6821754685428807e-01  1.1603540772093111e+00 2.0776035500303642e+00 -2.2058723100872089e-05  4.2602911819528599e-01 2.4822608030022102e+00 -1.7317128013564917e-01  -8.4477545646524055e-01 9.3089657583743696e-08 5.6446287568563502e-01  -4.6568924929082162e-01 2.1303933371686035e+00 1.2489800651914951e-01  1.2062066368362931e-01 2.1022609886182742e+00 -2.4430866540247129e-01  -7.1688128340931057e-01 2.8980723591553219e+00 -4.9994930679983160e-02  -4.5177422822371738e-01 1.9078300924962637e+00 2.5308978781844343e-01  -1.0096523972417633e+00 9.0126638215535337e-01 2.0250999404585160e-01  -9.2896978959986554e-01 1.2480302385724849e+00 5.1591286160816829e-01  -1.6292925690935456e-01 1.7657771157486215e+00 3.2865046058101997e-02  -7.8234183451650863e-01 2.6849552136171662e+00 1.3466221700659978e-01  -1.5907651505022274e-01 1.5037505631168306e+00 2.3140854570102376e-01  -2.7613239926586330e-01 2.3980933985052166e+00 -3.2553282716284404e-01  4.3560250571529147e-01 2.1441265332119133e+00 6.9559772804384773e-02  -6.2941809738460341e-01 1.4127541937923134e+00 6.4718360857631174e-01  8.1721168764260455e-01 6.7257623074082729e-01 6.3568520786762905e-01  -8.5219942795797277e-01 2.3624870699039291e-01 5.6071375974975302e-01  9.9427413802235254e-01 7.3639467179525930e-01 2.5388715614445989e-01  5.5228665473085670e-01 6.1087591348275305e-01 8.6451184642208856e-01  5.1836042222569156e-01 1.3015974699075714e+00 6.6609409593506075e-01  -5.1499956542741521e-01 2.0393409287950851e-01 8.7783602079007206e-01  -2.4831015447335519e-01 2.1177234741693458e+00 -1.6279713343960897e-01  -1.0203532030259055e+00 5.6735119304808979e-01 -1.5211727898667938e-05  -2.3300941783151247e-01 1.2463345234572911e+00 4.8307458292736782e-01  2.5756932232615704e-01 5.8958190961008916e-01 9.5457625861560746e-01  1.0450646939308035e+00 1.4937191530174108e+00 2.8917595120788109e-01  1.0576658916642072e+00 1.3225780335873443e+00 -1.5698926895977236e-05  -7.9816644621752086e-01 2.2035494771672672e+00 3.5688473179934982e-01  8.9459887257571691e-01 1.3955033900058327e+00 5.5328168417802348e-01  -9.9647520954845914e-01 -5.9205925097285662e-07 1.9820668999145447e-01  3.7768565713982799e-01 9.9095904351982422e-01 7.7540226688764546e-01  1.6391960017955998e-01 1.2236643127349793e+00 4.5493400457907773e-01  -1.0947783685988859e+00 1.9259274292193629e+00 2.3848886640523481e-01  2.0220635716470653e-01 1.7383937133230909e+00 8.0096581990211732e-02  1.0203737814340756e+00 5.6733118248328862e-01 -2.7552568550053238e-05  1.1027699606779042e+00 2.0684559683577763e+00 2.3048281028396145e-01  -8.5312635846322404e-01 1.0328352918844439e+00 6.1462391303716835e-01  -1.0211469124329859e+00 1.1427992909122167e+00 2.2744160476403263e-01  -1.0179865971984652e+00 1.8917610301966720e-01 -3.3387694515212699e-05  9.4933581029641156e-01 1.0953534280985020e+00 4.6089853808510040e-01  4.1087939689381231e-01 2.1149938524473658e-01 9.2879211999077849e-01  -1.1594566298532238e+00 2.0777333878057931e+00 -2.9406356129794843e-05  8.5184489680506414e-01 4.7393105614488884e-01 5.7259626358598437e-01  1.0016628190301000e+00 4.5733485123678441e-01 1.9609918519534983e-01  9.2616827742072583e-01 7.2645493516188941e-01 4.5724942047855222e-01  3.4050642479328186e-01 1.1964738828404888e+00 6.1177149631324168e-01  8.5300106737871317e-01 1.7943807105582714e+00 4.9316125198252153e-01  -2.0328074174658125e-03 9.2299631764309942e-01 6.6262031916432540e-01  1.0277047393049299e+00 1.1772305768407583e+00 2.0724720687559939e-01  -1.0032284782854510e+00 4.7297330077223826e-01 1.8815616741683311e-01  5.8493095630054101e-02 6.6973812950749134e-01 9.1067438885862828e-01  -9.4836834787426560e-01 4.9693516390937009e-01 3.8563554220263174e-01  -5.7842002906219447e-01 1.0796286336187191e+00 7.7287723679675568e-01  -8.6613960841845050e-01 2.0189613908222301e+00 4.2212877323005127e-01  -1.2026790940316485e+00 2.8443251525182807e+00 1.6171909364677314e-04  7.7254667731773063e-01 1.0141936435174079e+00 6.9899298843097879e-01  5.7002340561131515e-01 2.6388979171481695e+00 -6.7708708140794840e-02  -4.5817603226483872e-01 1.4446456207929657e+00 5.5100553414799103e-01  6.1042015646086389e-01 1.9890117736690116e+00 3.7107924519529129e-01  6.5170168088813618e-01 1.6398563362876417e+00 5.5559455631060761e-01  -1.8293853438495594e-01 2.5392302508068374e+00 -5.3212522043990584e-01  -6.6472428031332824e-03 2.3365049464215391e+00 -4.5915145624130060e-01  -1.1335355217296215e+00 2.1760442118933452e+00 1.7295092394912040e-01  9.9647624331907869e-01 -5.6523546802946343e-07 1.9820951202244058e-01  7.1628347383649327e-01 2.8972986096271294e+00 -5.2444145254137056e-02  1.9820868443666212e-01 1.0363778624258099e-06 9.9649225104089711e-01  -1.9821624280368555e-01 -2.7260264428214038e-07 9.9648305507663271e-01  5.6445627113392061e-01 2.1875021580843613e-07 8.4477656573317927e-01  1.8064875226543764e-01 2.5388794227449876e+00 -5.3302324406130275e-01  8.4477854143626663e-01 -2.0340206859351002e-07 5.6446223368396375e-01  1.0570926651712871e+00 3.0247730097469669e+00 1.0932581592746840e-01  -4.5691387329558586e-01 2.7161882300931084e+00 -2.9569118515267268e-01  -5.6446356475138093e-01 -5.4321249722889865e-07 8.4477250463026254e-01  -7.0167974640069186e-02 2.0498386374052910e+00 -2.2257439238823776e-01  8.7699377340075113e-01 2.7829747970505241e+00 1.3932945304754918e-01  4.5659989052154898e-01 2.3478620280211855e+00 -3.6184761606735699e-02  5.8197815905316075e-01 2.3176875906610039e+00 1.5935084276897793e-01  7.2205638106450598e-01 2.5553453172481846e+00 1.5692014180502903e-01  3.2998794247338092e-01 1.5161925877807807e+00 3.7086722899237140e-01  -6.5508095373002484e-01 2.7189205663785669e+00 -8.5588186826158676e-03  -3.3241863785842607e-01 1.8848451613931450e-01 9.5783272517196905e-01  -1.1225299630430157e+00 2.5636386128998594e+00 1.6888484254404118e-01  -9.2523555077459807e-01 1.6460760184929162e+00 4.8911108885891469e-01  -1.0672459682577582e+00 1.5342716588912542e+00 2.1151902330591701e-01  -1.1094041354008404e+00 1.6989413219326543e+00 -2.5866825179490974e-05  -7.4365798472052780e-01 1.6386207644859638e+00 5.6582426239500083e-01  -5.7179160146454211e-01 3.9112990707561218e-01 8.4781669494132417e-01  1.2035103390279036e+00 2.8442269073615294e+00 -5.0733311959092445e-07  -1.0271810787506312e+00 9.4544443921394461e-01 -1.7125030653759156e-05  1.0179787171160926e+00 1.8917038517977799e-01 -2.9285443551124677e-05  1.1101386414117702e+00 1.6988140818218196e+00 -1.6452157012199860e-05  1.0272892678315579e+00 9.4541060763750639e-01 -4.7668209149071128e-05  -1.0572276967369723e+00 1.3226501763836565e+00 -2.9065501043526900e-05  1.1934440956864458e+00 2.4599629040344779e+00 -3.7400365431259581e-05  -1.1926173064968342e+00 2.4600906181069844e+00 6.7465209658291534e-05  7.4189333750278175e-01 2.8717691798751832e-01 7.0262670936451244e-01  -9.8812007731142126e-01 1.8759352197863999e+00 3.9459821006197088e-01  -7.8944857406131574e-01 6.3563366114167474e-01 6.6765530275569351e-01  -3.0263379417027902e-01 1.1181093502877246e+00 6.3838139016901740e-01  -6.4240858748888419e-01 1.8565803458770322e+00 4.5649152980530333e-01  -4.0586172573732454e-01 1.6271876120240887e+00 3.8153380426089212e-01  -5.1414798364841918e-01 2.3069281278104228e+00 7.8897772862863841e-02  5.2527074927203565e-01 8.9631661149721942e-01 8.3753026623333771e-01  1.7936326614349157e-01 1.9719552813002907e+00 -1.1221299060016166e-01  4.6013387830730890e-01 1.7569053163093546e+00 3.6072543894986575e-01  9.6066698294102448e-01 2.4414551754232483e+00 2.7266218918078106e-01  1.1316595065926516e+00 2.2464801385005253e+00 1.7982075189006153e-01  1.1109062982129594e+00 1.8865882365124671e+00 1.8767712207243384e-01  -2.2079260980905882e-01 9.6557050256357557e-01 7.0063658799407502e-01  6.8998991003977028e-01 1.2467416121671320e+00 7.0116995267696369e-01  5.0130967931945947e-01 1.4591348627668967e+00 5.7396321265796280e-01  -2.0751857712317318e-01 4.3684601928419253e-01 9.8070123345412374e-01  -1.0087953424994804e+00 1.5164868697520704e+00 3.8873212962239961e-01  -9.4630364056023997e-01 2.3030552505686361e+00 3.1761425464944237e-01  -1.0093761438346143e+00 6.5016450828366601e-01 1.6225251798179890e-01  4.1531681777297914e-02 1.7582085699328125e+00 -5.0443205803104183e-03  5.7706840206472843e-01 4.3571043138322968e-01 8.4580590148767076e-01  2.4144011865314946e-01 4.1238980371210998e-01 9.7619647131374909e-01  1.0737689266306933e+00 2.6415801804999037e+00 1.8808845194176010e-01  7.4351257186516884e-01 2.2268233000075530e+00 3.3010521285968625e-01  -4.8869756574146367e-01 2.4322078817221153e+00 -4.3220155278752587e-02  -4.9610101189108718e-01 1.7937887762474871e+00 3.7885223092689641e-01  9.8331407400204085e-01 2.0705274785951913e+00 3.5970191592314987e-01  -5.2014624973458004e-03 1.1564995782894254e+00 4.6407459935083240e-01  3.2379461922335939e-01 2.0844721624545057e+00 -5.1564947964754158e-02  3.3873898805509245e-01 1.8183832884966520e+00 1.6043738583568740e-01  1.8713153698095588e-02 1.8004932228679446e-01 1.0079734787982246e+00  -7.2058106292058299e-01 2.5279082000736657e+00 1.7276970455899018e-01  1.7357635247432754e-01 1.5937302823178352e+00 1.7088522013994195e-01  3.1274302585735514e-01 2.3669276938596595e+00 -2.5887867765020378e-01  -3.1910671812459362e-01 5.6960120589893304e-01 9.4988633613723550e-01  -4.9279380051106420e-01 5.6745076532686434e-01 8.9491917666036802e-01  6.0330055562268468e-02 2.2174154182342924e+00 -3.5572189127599169e-01  -1.7622231098478516e-01 1.9664653797060820e+00 -1.1049680259030406e-01  -9.0229381635610595e-01 6.3602413738227592e-01 4.9744037877165664e-01  -9.6851839809698803e-01 8.6277621031980323e-01 3.6605520571419825e-01  -3.5773655616589189e-01 2.1204809506143802e+00 -3.1073455775779472e-02  -3.0311713240003452e-01 1.8268515361712296e+00 1.0986313838048627e-01  -1.0086753809184279e+00 2.8377501752821715e-01 1.4516575894659062e-01  7.8727799449761149e-01 1.3594874952415931e-01 6.4526748169416481e-01  -6.4331993381848274e-01 1.3900213333671116e-01 7.8865797618758315e-01  -1.1023213257671607e+00 1.7620688532974031e+00 1.6891681390551092e-01  1.0503853447736884e+00 1.3520506064643052e+00 1.7949637126020637e-01  -4.9169784289067664e-01 8.7096861836706696e-01 8.5072732011157248e-01  -6.0003130849395392e-01 7.3527214007389041e-01 8.3497565317063882e-01  6.9806129963615529e-03 1.4801540334574221e+00 2.0618302028262908e-01  -9.7376923483439337e-01 1.3955300663999437e-01 2.9528025539211150e-01  -5.4564728506899174e-01 2.6200681863100117e+00 -8.8298123247183169e-02  1.0169074035154897e+00 8.5110305710412759e-01 1.3651296155464535e-01  -1.7372898679971205e-01 1.6381113954799631e+00 1.3672627178349606e-01  6.8848054065470832e-01 6.3575645816034232e-01 7.7049134953068155e-01  -9.1135340101208762e-01 3.5597406336854931e-01 4.6263546477749173e-01  2.1687378326280410e-01 2.2328954657065014e+00 -2.7507604090091392e-01  8.1044019851729876e-01 1.5802269808562952e+00 5.6942577987133469e-01  4.6089014144180046e-01 1.1581439236493598e+00 7.1624995779744027e-01  -3.0067485910511049e-01 2.2727104408999703e+00 -2.1238869379717121e-01  7.4517005096240607e-01 1.9387991761517664e+00 4.5170332043572836e-01  9.8598101926078086e-01 1.7440724341533971e+00 4.1540153309303379e-01  -7.4519427245712566e-01 4.5693936551483372e-01 7.0663350433003902e-01  2.0866760307324025e-01 7.2867648881083191e-01 8.9096367033992563e-01  -5.2858951624096417e-01 2.0546958075425321e+00 2.5820490829900022e-01  -5.7231052985079711e-01 1.2306141326198934e+00 7.1464208698929932e-01  -7.3153978567118771e-01 1.0368097308716775e+00 7.2811434683342335e-01  -7.7603038724068496e-01 1.3469482254625158e+00 6.4550246593995020e-01  9.4978508431854336e-01 9.3843525895844437e-01 4.3159309854467792e-01  -9.8713974439891916e-01 1.1808573360563952e+00 3.8138884732401102e-01  8.9749806224397011e-01 1.2525372214627867e-01 4.7943507876294733e-01  9.1634994724359142e-01 3.8449450312586531e-01 4.5382378402056839e-01  -5.8068089993738170e-01 1.5459028711151415e+00 5.7454182315501034e-01  9.8480122291107131e-01 1.4465701259833317e+00 4.3065003793146756e-01  -7.93230