<?xml version="1.0"?>
<VTKFile type="UnstructuredGrid"  version="0.1"  >
<UnstructuredGrid>
<Piece  NumberOfPoints="758" NumberOfCells="1386">
<Points>
<DataArray  type="Float64"  NumberOfComponents="3"  format="ascii">-1.570796326794897 3.048 0  -1.570796326794897 0 0  1.570796326794897 0 0  1.570796326794897 3.048 0  0 0 0  0 3.048 0  -1.570796326794897 1.524 0  1.570796326794897 1.524 0  -0.04609926118424437 1.524 0  0.7853981633974483 0 0  0.7623485328053261 2.262242601661362 0  -0.7853981633974483 0 0  -0.7853981633974483 3.048 0  0.392699081698724 0.7745759241961347 0  -1.570796326794897 0.762 0  -0.8084477939895706 2.0955 0  -0.68277245543452 0.8915343570675713 0  0.7853981633974483 3.048 0  0.778743707341909 1.468410948960538 0  2.780093748954961e-16 2.285302774973185 0  -1.570796326794897 2.286 0  1.570796326794897 0.762 0  1.570796326794897 2.286 0  -0.9375370967763674 1.47348297960658 0  0.9831575747762593 0.9003629142671278 0  -0.3926990816987241 0.4064697549061488 0  1.177419588818055 1.905 0  0.3692901340097942 1.880893989147954 0  -0.4920225169641509 2.564371687128368 0  0.3926990816987241 3.048 0  1.178097245096172 0 0  1.155705348811136 2.643920532523289 0  -1.178097245096172 3.048 0  -1.178097245096172 0 0  -0.1391296372266528 0.8873724190154949 0  -1.10527745318919 2.528282743051346 0  -0.9817477042468103 0.4742759268549471 0  -0.3416666987802651 1.923944646262223 0  -1.570796326794897 1.905 0  -1.156555306160469 1.030861936336814 0  0.7648449098493205 0.4764142032227 0  0.3926990816987241 0 0  -0.4820376416180818 1.326151321396512 0  0.06374421723344185 0.4545169930886408 0  0.1972735722393064 1.163324878565267 0  0.3900417218314142 2.566922767651637 0  1.570796326794897 0.381 0  1.188877612935585 1.295195418509834 0  1.179914028402171 0.5308585702661928 0  0.7660075594126428 1.865233039449035 0  0.6330293131838399 1.095171663968746 0  -1.201232463242587 2.144287146570887 0  -0.3926990816987241 0 0  -0.3926990816987241 3.048 0  1.178097245096172 3.048 0  0.7684409382397209 2.649499271873753 0  -1.236954997304436 1.7145 0  -0.1088573452899617 2.666651387486592 0  -1.570796326794897 1.143 0  -1.570796326794897 0.381 0  1.570796326794897 1.143 0  1.570796326794897 1.905 0  1.570796326794897 2.667 0  -1.570796326794897 2.667 0  -0.6730839067294777 1.743003792473746 0  1.199831389396789 2.275437921225198 0  0.3936837537618041 1.495643752599615 0  0.01539369169800942 1.928544709491661 0  0.4156551272669651 0.4219033286010089 0  0.3401546043708642 2.225103550856524 0  -0.3379897306391274 2.262671266279809 0  -1.23624174049596 0.7000907110925838 0  -1.265224057170889 1.360131453617764 0  -0.1224339018241312 1.210043725539656 0  1.289286200625578 0.9918698881707442 0  -0.7751142346211329 1.197848666814478 0  1.003546186550495 0.2660297686099683 0  0.1963495408493621 2.808538634159524 0  -0.8079023568959116 2.703551618159924 0  -0.3480226984353056 1.610059855391589 0  1.075147893506229 1.598068412087719 0  -0.8290627893979112 2.399544545867518 0  0.6965048925255637 0.7972100472372819 0  -1.257765094876752 0.3107645483825858 0  -0.6724835324263325 0.5684215760013651 0  -0.3995059642389676 0.7173610149075536 0  0.9136951972244611 1.187564504803626 0  -0.964259350608907 0.8095514380783081 0  -0.7565990314517038 0.2897049735129544 0  -0.9603859887840651 1.834914433810327 0  -0.1457055965762301 0.2521630699436873 0  0.1963495408493621 0.2041911848053476 0  0.6241974196550791 0.231695999252114 0  -0.4098815011312292 1.029160072548571 0  0.9592800715482012 2.452820690856482 0  0.9648684169153161 2.840751931000357 0  0.5890486225480862 3.048 0  0.164631037784102 1.698913854044779 0  0.5664480837073581 2.070920238540226 0  1.374107957806476 1.7145 0  0.9861079629544779 2.102471438422718 0  -1.374446785945534 3.048 0  -1.288827800789186 2.762781313597598 0  1.353232957571468 2.835634774483438 0  1.302158670506274 0.2650078124691045 0  0.1394669809465775 0.8907702620243092 0  -0.5631487221059602 2.830992231257464 0  1.372837635547072 2.483038902756259 0  -0.1493395228831287 0.618617259260858 0  -1.32327048447753 2.378769394323546 0  0.56080204725298 1.699622905297025 0  1.570796326794897 2.0955 0  0.5403456747786348 2.786446773498672 0  -0.9817477042468103 0 0  -0.5847039960246873 2.326882432521036 0  0.1225428891326576 2.526494255738436 0  -0.9817477042468103 3.048 0  -0.5522901559753841 2.071668786267058 0  -1.370864794258017 0.9075071715671403 0  -1.043891045637083 1.250611220450313 0  -0.1652643923634778 2.09141301924679 0  -1.044446740946883 2.764982067459552 0  -0.1610370079820225 1.763280243096074 0  -0.3136912237752232 2.810498886211121 0  0.5400974078002052 2.370472734822523 0  -0.7009161718414544 1.427243880175582 0  0.902907438200502 0.6735032943420574 0  -0.9879196222361604 0.2371379634274736 0  1.319268546233604 0.7412771512308228 0  0.5578373583610097 0.608241627784878 0  0.5756483102040615 1.332636919938113 0  -0.5281701577409 0.2032348774530744 0  -0.266729509930448 2.489223923247521 0  -1.570796326794897 0.5715 0  -0.2430656531629531 1.405631921096758 0  0.253622337931223 0.5884397663452474 0  1.284044721043478 1.50372037617638 0  1.570796326794897 1.3335 0  -0.9904333867980613 2.235882060371517 0  0.9871146764618406 1.395690276854986 0  -1.374446785945534 0 0  0.3981951765262902 1.020833864419675 0  0.1670583512016766 1.405384478716078 0  -1.330327693484763 1.938638984813805 0  0.2106653067452682 2.040805097078886 0  1.570796326794897 0.5715 0  1.334822181490566 2.081373939821734 0  -0.9303227889097604 1.033236710715967 0  -1.34639228476592 1.150776798768373 0  -1.570796326794897 0.1905 0  1.106697207481837 1.099709897393925 0  0.4137866939027022 0.2104288000383385 0  -1.570796326794897 2.0955 0  0.9761377489246634 0.4754251272674608 0  1.377108465632662 0.4605024587280874 0  1.108114944719677 0.7297638044096917 0  0.3695908229138113 1.285681859811955 0  0.9799112840676307 1.800306505551499 0  -0.001696842075803034 1.042028929293442 0  1.366537356420357 1.185723700290463 0  -1.385029840108318 0.47625 0  0.05842649915411911 0.6874537157920781 0  -1.183268988745763 0.4997334438341218 0  -0.6073502281622543 1.081347079085406 0  -1.026941765261019 2.031536576622642 0  -1.570796326794897 2.8575 0  0.8159726599830506 1.011928543199529 0  0.7652782693277244 2.849245002237192 0  -0.5252326280373281 1.520125074885265 0  0.7648326174724897 2.063743853392348 0  0.757099741434616 1.666331708950521 0  -0.1963495408493621 3.048 0  -0.005410422648647092 2.843333256403111 0  -1.395368347654653 2.19075 0  1.374446785945534 0 0  0.9817477042468103 3.048 0  0.1963495408493621 0 0  -0.1963495408493621 0 0  0.5890486225480862 0 0  0.1963495408493621 3.048 0  0.9817477042468103 0 0  1.374446785945534 3.048 0  -0.5890486225480862 3.048 0  -0.5890486225480862 0 0  -0.06865319188571758 2.471928549109083 0  1.159049337209348 2.838090892449816 0  0.5817075150535711 2.596909954318943 0  0.7656515661107315 2.455866896253367 0  0.9620790410056582 2.647119292933887 0  0.3676829480103987 1.68739481709134 0  -0.8886101495223063 2.878912500124773 0  -0.3317793704126089 0.1873756770788371 0  -1.383208664444332 2.577695923010364 0  -1.043597917648523 1.648216005744782 0  -1.362178343413552 1.546177620526679 0  -1.570796326794897 1.7145 0  -0.8462722504471433 1.648434957877788 0  -0.588076822054871 0.3899352838051667 0  1.570796326794897 2.8575 0  -1.570796326794897 0.9525 0  1.570796326794897 0.1905 0  1.570796326794897 1.7145 0  1.570796326794897 0.9525 0  -1.570796326794897 1.3335 0  1.570796326794897 2.4765 0  -1.570796326794897 2.4765 0  0.8103777117362174 0.287468585434799 0  -1.145334531235929 1.881885620422454 0  -0.8620560674467429 0.6361265362229395 0  -0.321688879263093 1.207848147265888 0  -0.7798551871678058 1.904240998338365 0  -0.4724954359209014 1.769587110195458 0  -0.667402576232105 2.495985359319255 0  0.5365063314111709 0.8945566719544227 0  0.1855702280441107 2.342745654422604 0  0.55510120733165 1.88540118775351 0  1.188295809121239 2.460939894898248 0  1.38587897409014 2.260870763688798 0  1.383978812419919 1.901097375082534 0  -0.2265735189171196 1.049795314962436 0  0.7387890113368257 1.246392780742437 0  0.5763234466275948 1.516457524623135 0  -0.203279258075353 0.4348372558382012 0  -1.179202350299698 1.523245956950107 0  -1.151844216720993 2.318990544544152 0  -1.410806081599612 0.6547540757597369 0  0.04190096621848406 2.108399609871347 0  0.5925649981629265 0.4343292987553075 0  0.2371113691258682 0.4102816185532077 0  1.334103818253725 2.657728219912091 0  0.9405077369493808 2.275181409651143 0  -0.633962040105568 2.669303984283053 0  -0.6045614816381242 1.904349918307267 0  1.159697673803787 2.079238591118184 0  -0.004643801590645341 1.347662554528907 0  0.3691400131247499 2.395423267764724 0  0.3855005143298051 2.055603978165229 0  0.01839821075864462 0.1788084577298442 0  -0.9568120219060965 2.61629404172056 0  0.1783135820912846 1.871116340262054 0  0.3649950158263953 2.745288921627024 0  -0.3142054567155264 0.5671999812317062 0  -0.4933549623779417 0.564740705097546 0  0.06092775470575962 2.685867440722903 0  -0.1801827362748675 2.337517890002858 0  -1.063355415037434 0.6386189748554 0  -1.205242865599393 0.8676070232612285 0  -0.4176020549597784 2.412196127179313 0  -0.3347051678178828 2.093252344225509 0  -1.427772711006951 0.2857500000000001 0  0.8835729338221293 0.1362887052191026 0  -0.6831011505337878 0.1389086130988801 0  -1.403875662049666 1.77648180985222 0  1.394165436236593 1.362588987767805 0  -0.5007942298153729 0.8700626692351643 0  -0.6093220848169366 0.7321530406295067 0  0.007534593095922887 1.760126887057542 0  -1.276272015520854 0.140425968067263 0  -0.7270478511000733 2.847016806985676 0  1.436331331726002 0.85725 0  -0.1770320080670663 1.927167796173981 0  0.7200726153501196 0.6345534912379586 0  -1.099983122078282 0.3577316115390257 0  0.2324759135153202 2.648405702327079 0  0.9054371869972004 1.582409569434113 0  0.5000672234640285 1.188708149930449 0  -0.340793734207542
[...]
<PointData  Vectors="phi"> 
<DataArray  type="Float64"  Name="phi"  NumberOfComponents="3" format="ascii">-1.2517457850619054e+00 3.0235222943691404e+00 3.7155407147745721e-04  -1.0160117460888098e+00 8.1520149582798679e-08 -9.3141180956402032e-06  1.0160118134472558e+00 5.4042119871470936e-08 -1.1130608411030845e-05  1.2520329193134261e+00 3.0234545024699968e+00 2.9946996038409556e-04  -5.8844541209837311e-06 4.4219634715505580e-07 1.0160211866008020e+00  -7.1921542212007321e-04 2.5333108163225901e+00 -4.5885539512031170e-01  -1.0674171438011619e+00 1.5095432397513697e+00 -1.6841113872894990e-05  1.0677910084825293e+00 1.5094696075278080e+00 -2.5403578335668005e-05  -4.6906949466736889e-02 1.3624695699709204e+00 5.2124424131230951e-01  7.1842695910971355e-01 -2.1419949113598882e-07 7.1841659947018666e-01  6.3036691387550781e-01 2.1922721399028626e+00 3.8011372031821045e-01  -7.1842409320328060e-01 -1.2409502336065864e-07 7.1841853189508242e-01  -6.0770976691260192e-01 2.8487663594945873e+00 -5.0529553030272803e-02  3.9689035510201953e-01 7.7907529732554337e-01 9.2161877854155239e-01  -1.0237294489561406e+00 7.5546160302458543e-01 -2.1556466155312317e-05  -6.9179175672706594e-01 2.0608578671569968e+00 4.7600643005738891e-01  -6.6348475878679125e-01 8.9385601968071771e-01 7.9000673307582570e-01  6.0735123110491229e-01 2.8481735174223344e+00 -5.2148243151259238e-02  7.3881907502386590e-01 1.4709635525711897e+00 6.8798917505412160e-01  -5.1251511974294707e-04 1.9541802699276409e+00 3.9811799730717391e-02  -1.1833658891390342e+00 2.2610893348851118e+00 1.8442058398236019e-05  1.0237669697352505e+00 7.5544029620797037e-01 -3.0616180616110019e-05  1.1839918218417917e+00 2.2609537155966528e+00 -6.2430006273669190e-05  -8.7170415065009810e-01 1.4730633954414638e+00 5.9852882151368703e-01  8.7185509961712027e-01 8.9724774476662039e-01 5.6915133236165871e-01  -3.9183199448321071e-01 4.0899847686450630e-01 9.3077135363158714e-01  1.0310818746146064e+00 1.8948385287524363e+00 3.8359695166900681e-01  3.3672896983217043e-01 1.7273798904963000e+00 4.0467741360270959e-01  -4.1570601428143089e-01 2.3260014728572895e+00 6.2088001566757707e-02  3.3647381466099396e-01 2.6681472073687398e+00 -2.8658735192882945e-01  9.3865736360092622e-01 -4.3716718975477307e-07 3.8880528347332965e-01  9.6140099064958295e-01 2.6191494727153191e+00 2.7922714731791115e-01  -9.3050524665484557e-01 2.9942313881060034e+00 1.3353321195291420e-01  -9.3865718553455513e-01 -1.9475921217927945e-07 3.8881449375710758e-01  -1.4126306693449098e-01 8.8721429762445581e-01 9.3931126733662296e-01  -9.2728452709385312e-01 2.5055154570648686e+00 3.2230768591283099e-01  -8.5541180713286658e-01 4.7212405067586000e-01 5.6794675078113566e-01  -3.1504849514962696e-01 1.7505161362349351e+00 3.6502050194181795e-01  -1.1247420151295136e+00 1.8843794244691190e+00 -2.4936667270000711e-05  -9.5813433305453188e-01 1.0246066551923001e+00 4.1285782001895127e-01  7.1430060887390934e-01 4.7612154908424537e-01 7.3650386683997970e-01  3.8881372221256638e-01 9.8617349647931199e-07 9.3866789609212720e-01  -4.5969369819439065e-01 1.3113594019623704e+00 7.6571642202739276e-01  6.4752822190062106e-02 4.5817389353082866e-01 9.8937900393988010e-01  1.9455080698567781e-01 1.1174914153370963e+00 7.8895841340921169e-01  3.4345248567505565e-01 2.2819494462077570e+00 3.9453341401210240e-04  1.0199013776800125e+00 3.7778333836585831e-01 -1.9563855924303339e-05  9.8813036906575957e-01 1.2868882921913032e+00 3.8283952483416972e-01  9.4876940962710454e-01 5.2721343163895495e-01 3.8916337988190813e-01  6.7961580453650028e-01 1.8455723482050750e+00 5.6740978475160331e-01  6.2365506562007900e-01 1.0997115038294676e+00 8.0740109562554041e-01  -1.0469124895129587e+00 2.1325987204744079e+00 3.4888047463145788e-01  -3.8880192871918084e-01 -3.2646879098672376e-07 9.3865706371742597e-01  -3.3749450056163383e-01 2.6685850798261268e+00 -2.8558864519298111e-01  9.3017734196544966e-01 2.9937780747947107e+00 1.3192936837759928e-01  6.0833486547182369e-01 2.5171671361918180e+00 1.7027659446629570e-01  -1.0445423630074884e+00 1.7022626248242636e+00 3.3482263126579803e-01  -1.0926653474156156e-01 2.2634177419983512e+00 -1.8435947842569275e-01  -1.0346808973668924e+00 1.1330232313090154e+00 -2.4174057310685067e-05  -1.0199067392163434e+00 3.7779333855672564e-01 -2.4522171664774504e-05  1.0347866037367850e+00 1.1329872111307844e+00 -1.2326686347736017e-05  1.1253417260510399e+00 1.8842491325696020e+00 -4.8112259493567899e-05  1.2280478540586681e+00 2.6413547309241472e+00 -6.4598497980010940e-05  -1.2271786174183283e+00 2.6415020570864849e+00 2.3095240991383470e-05  -6.0359023862645034e-01 1.7177297546818950e+00 6.0792877497562359e-01  1.0409727983247510e+00 2.2630547660636804e+00 3.3647729442952740e-01  3.6686636509279452e-01 1.4297152695037405e+00 6.4687978005193347e-01  1.5185771439815790e-02 1.6745410610112414e+00 2.6224085520842189e-01  4.1382017904637519e-01 4.2440191993973198e-01 9.2231589715049078e-01  3.1066524521270700e-01 1.9881222532265950e+00 1.7982809271308919e-01  -3.0956405248938501e-01 2.0171695205181783e+00 1.5631991089927832e-01  -9.7185860499995469e-01 6.9504166072620754e-01 3.3547723623460662e-01  -1.0153972418564605e+00 1.3500208202413806e+00 3.0839262706194487e-01  -1.2257076617555486e-01 1.1372634217555471e+00 7.4095966377691491e-01  9.9636042587316376e-01 9.8436424342369488e-01 2.8392739356217783e-01  -7.4601822633920634e-01 1.2005196512668532e+00 7.2425143279272142e-01  8.6200357870677602e-01 2.6464165129744560e-01 5.4784892616936032e-01  1.8668936667798247e-01 2.3991433548763696e+00 -2.4230875778461311e-01  -6.3645127508793586e-01 2.5779745972870693e+00 1.6144244245808873e-01  -3.2487091689380604e-01 1.5051099443887253e+00 5.5948725767988550e-01  9.6332498085444884e-01 1.5925175934235078e+00 4.8433886416573763e-01  -6.7641744634076673e-01 2.3311401943919838e+00 3.3590173164925785e-01  6.7132381229777938e-01 7.9878467576594214e-01 7.8192777084898613e-01  -9.7129709573528511e-01 3.0842363592231742e-01 3.1391062644400530e-01  -6.4488191287804797e-01 5.6931413139092157e-01 7.9682964010519941e-01  -4.0274630402716910e-01 7.2155009267872061e-01 9.2164416981409114e-01  8.4678135188964532e-01 1.1863522216444844e+00 6.2689406449329377e-01  -8.5704135668919990e-01 8.0683146323480881e-01 5.8465137688933666e-01  -7.0318984535119144e-01 2.8939927261861664e-01 7.4106793565191142e-01  -8.7348347250356440e-01 1.8325901326297480e+00 5.3949214179312788e-01  -1.4748382107537042e-01 2.5446934582349123e-01 9.9351937508967680e-01  1.9825539682189594e-01 2.0604529792472265e-01 9.8844087872184827e-01  5.9737960155557757e-01 2.3206736520521073e-01 8.2518513773604740e-01  -4.0983399270553394e-01 1.0318950716223951e+00 8.8209277101690831e-01  7.9188819385966203e-01 2.4125613913802706e+00 3.4518419103871473e-01  7.5646363807590400e-01 2.7500183592749696e+00 1.5766191687721764e-01  4.7246873219820162e-01 2.7580559731390131e+00 -1.6962930198778761e-01  1.6227515461725014e-01 1.5164379884024026e+00 4.3240231534146023e-01  4.8287302795113651e-01 1.9604239876833023e+00 3.9467429909344631e-01  1.0795371722017228e+00 1.6985156359950526e+00 1.9963563032871745e-01  8.6698413437710486e-01 2.0926722405171527e+00 4.6838137647679418e-01  -1.1281729345457723e+00 3.0238692423817168e+00 1.4029370248059303e-01  -1.0769648656684458e+00 2.7415952887034511e+00 2.1777469929734281e-01  1.1284220395562252e+00 2.8140002248610823e+00 1.7727597359537245e-01  9.8334934713621058e-01 2.6295071445545470e-01 2.7044716276962161e-01  1.4137931065790635e-01 8.9037214100217155e-01 9.3802835677331509e-01  -4.5753829574230653e-01 2.5735723042531995e+00 -5.3278839365005604e-02  1.1539798614505847e+00 2.4625689785943377e+00 1.9031378564995724e-01  -1.5226563208405994e-01 6.2275575742681522e-01 9.7588211511836587e-01  -1.1236005371230351e+00 2.3605836937953417e+00 2.3662015183532586e-01  5.0223629280072890e-01 1.6507907198832865e+00 5.9746514362632075e-01  1.1558300599843987e+00 2.0721812463691069e+00 -2.0409366822498216e-05  4.4230241920633212e-01 2.5268675971805141e+00 -4.1578409646636290e-02  -8.4477562288118202e-01 2.5595498591921290e-08 5.6446295133032831e-01  -4.8636909787403432e-01 2.1763610202174499e+00 2.5697778594071669e-01  1.2142006715172725e-01 2.1560649065612045e+00 -9.4132686852492431e-02  -7.5588071950957814e-01 2.9311179571769670e+00 5.6592588220590982e-02  -4.7236795613982019e-01 1.9554279567047497e+00 3.8766025742417337e-01  -1.0098986914990813e+00 9.0015157331768503e-01 2.0257572292302503e-01  -9.2500804761944599e-01 1.2458685363962312e+00 5.1751691963999813e-01  -1.6330177758708661e-01 1.8234141669547093e+00 1.8735985749436179e-01  -8.3585714756402230e-01 2.7092945945044322e+00 2.2466860404623354e-01  -1.5950126898935596e-01 1.5655522640372910e+00 3.9089093846646411e-01  -2.8221948572564709e-01 2.4456613898147217e+00 -1.8591844194137841e-01  4.5277606593084413e-01 2.1916173211070538e+00 2.0481927717243947e-01  -6.6800799660518850e-01 1.4288382613153965e+00 7.2255056644732674e-01  8.1516015956505128e-01 6.7173285116361003e-01 6.3425498928169122e-01  -8.5267441089228846e-01 2.3594548315431704e-01 5.6095595816790078e-01  9.9512399855456035e-01 7.3546888595895277e-01 2.5400806775365831e-01  5.4800718155941719e-01 6.1060162354878023e-01 8.5941862046031858e-01  5.5229890945597460e-01 1.3300972652207328e+00 7.6850397899931855e-01  -5.1433825006626532e-01 2.0396494406167187e-01 8.7704483671729316e-01  -2.5120492927287863e-01 2.1695120474532650e+00 -1.6937872266213714e-02  -1.0210917290330288e+00 5.6663614804757900e-01 -1.5483211328226373e-05  -2.3615297530207074e-01 1.3114394893938868e+00 6.4446809736658905e-01  2.5714464376617929e-01 5.9247590043404330e-01 9.6170725880408259e-01  1.0351663215854350e+00 1.4918810743514030e+00 2.8986557505619642e-01  1.0471885131336667e+00 1.3215165093861592e+00 -1.5006824744011934e-05  -8.5335737418394098e-01 2.2193657585140949e+00 4.2905752402749703e-01  9.0291773420431332e-01 1.3930306524916924e+00 5.6414885426030381e-01  -9.9647456017017089e-01 -6.6241427605933732e-07 1.9820650422052236e-01  3.9838218041450590e-01 1.0234669984744933e+00 8.8537493224986807e-01  1.6523913148270486e-01 1.2911893410721182e+00 6.2064168392165397e-01  -1.0975833967053139e+00 1.9216025976780744e+00 2.4189573612121268e-01  2.0387694617819940e-01 1.7961970211109144e+00 2.3428703739039067e-01  1.0211066188331184e+00 5.6661938687571634e-01 -2.7382984867474896e-05  1.1137200922278188e+00 2.0632824334701487e+00 2.3548603870164148e-01  -8.4842676746467627e-01 1.0311485794051227e+00 6.1404903004068989e-01  -1.0159610551282328e+00 1.1415735748712514e+00 2.2722124303930993e-01  -1.0183510735969756e+00 1.8894135829003930e-01 -3.3275592266508063e-05  9.4298442045013875e-01 1.0939304868198569e+00 4.5996444742125403e-01  4.0993407496112522e-01 2.1168834566672914e-01 9.2736769673540231e-01  -1.1550022842285057e+00 2.0723300853659201e+00 -3.0655035753107489e-05  8.5235287839151264e-01 4.7330767809639301e-01 5.7273074146763503e-01  1.0023613205659183e+00 4.5675201400544480e-01 1.9620284720514103e-01  9.2570995921747257e-01 7.2552516455272975e-01 4.5699416072335675e-01  3.5406719785360602e-01 1.2530878813918040e+00 7.6041371668327640e-01  8.9319433095963152e-01 1.7982599312518128e+00 5.3489771749137549e-01  -1.8286893683272525e-03 1.0095781229285299e+00 8.4946511479105324e-01  1.0215311092288082e+00 1.1760273090168274e+00 2.0703646273897586e-01  -1.0039391695881819e+00 4.7236929997359717e-01 1.8825608765107821e-01  5.9748962158164658e-02 6.9138965830573462e-01 9.7850611419104838e-01  -9.4930908911575773e-01 4.9628107618037737e-01 3.8589135921547141e-01  -6.0038249261712029e-01 1.0860681957044365e+00 8.2031326725782938e-01  -9.1430885600331924e-01 2.0254448100545925e+00 4.7100795124196437e-01  -1.2412704242647750e+00 2.8326605045753892e+00 1.1957496721639265e-04  7.7143360267847749e-01 1.0123697789868447e+00 7.0174931894769543e-01  5.9813067637210882e-01 2.6786867028702943e+00 5.3023360347042428e-02  -4.8473049789871442e-01 1.4885103211691870e+00 6.7974863514935402e-01  6.5356630534923654e-01 2.0219908928202819e+00 4.7971745245528447e-01  6.9646635288186820e-01 1.6607280130581674e+00 6.4106729877449231e-01  -1.8613282834122805e-01 2.5864415280548814e+00 -3.9112201440131311e-01  -6.1756452839367400e-03 2.3891022852445083e+00 -3.1003579364232436e-01  -1.1438286580621588e+00 2.1698814760987992e+00 1.7583684402878857e-01  9.9647591101968214e-01 -6.3382402821106917e-07 1.9820942463811708e-01  7.5561113241624978e-01 2.9305618195172287e+00 5.4769951782139635e-02  1.9820789481305467e-01 1.4357356725016615e-06 9.9649212366433593e-01  -1.9821645650398922e-01 3.1727617459979148e-07 9.9648258511680876e-01  5.6445626353530609e-01 1.9641284263667934e-07 8.4477742670440914e-01  1.8477490918099210e-01 2.5861675537888718e+00 -3.9179586898163177e-01  8.4477858951466800e-01 -2.1330136511980814e-07 5.6446235132128741e-01  1.1278682853244417e+00 3.0239125100424555e+00 1.3948246290687147e-01  -4.7316187931240733e-01 2.7585417730538397e+00 -1.6835797553782003e-01  -5.6446409416164089e-01 -2.2526815579329049e-07 8.4477203891370378e-01  -6.9842714168790940e-02 2.1045754115753548e+00 -7.0968481919752607e-02  9.3819400564441391e-01 2.7992565472372104e+00 2.1188259333457687e-01  4.7558387907790628e-01 2.3929491656680946e+00 9.5211996589653861e-02  6.1748061240357344e-01 2.3561459940494212e+00 2.7765558680293601e-01  7.7147490238273375e-01 2.5839071227221315e+00 2.5598336484945849e-01  3.3900191068800228e-01 1.5734962659282321e+00 5.2118868513454597e-01  -6.9123270442037610e-01 2.7543031700923124e+00 1.0316041271700990e-01  -3.3159977233013593e-01 1.8876318750417792e-01 9.5642046926040125e-01  -1.1611603551752072e+00 2.5568696884012212e+00 1.7813186079598306e-01  -9.4555838644249146e-01 1.6441793337315822e+00 5.0777852011871893e-01  -1.0549960974516999e+00 1.5326515331219843e+00 2.1178588300932424e-01  -1.0945222736810696e+00 1.6969742872954283e+00 -3.0676822589645538e-05  -7.8618897319821601e-01 1.6486341641909608e+00 6.2533615660733377e-01  -5.7000235190878135e-01 3.9100329360684533e-01 8.4543540178324705e-01  1.2422530280681752e+00 2.8324995228698131e+00 -2.8399906534510109e-06  -1.0279591134275943e+00 9.4426445937517867e-01 -1.7250773632275764e-05  1.0183413908862184e+00 1.8893683582702631e-01 -2.9239559473907915e-05  1.0950742654538952e+00 1.6968657413180146e+00 -1.6810308855226191e-05  1.0280245928270852e+00 9.4423607480721317e-01 -4.8423961885325751e-05  -1.0469788290296573e+00 1.3215641248489620e+00 -3.1171451499347529e-05  1.2084497442388675e+00 2.4507394481666758e+00 -2.8923374696284959e-05  -1.2076528649152194e+00 2.4508828159827227e+00 3.0349383252044230e-05  7.4203353380009507e-01 2.8686779881247759e-01 7.0267439558535050e-01  -1.0118321543873339e+00 1.8733925568938981e+00 4.1182647355013652e-01  -7.8747981624024554e-01 6.3486280736893030e-01 6.6610249017801071e-01  -3.1246033868288819e-01 1.1787615719883604e+00 7.9267550875805104e-01  -6.8861121390102364e-01 1.8835168065902819e+00 5.5364223005443747e-01  -4.2254026628038566e-01 1.6786380264204808e+00 5.2232470977793766e-01  -5.3987748911782474e-01 2.3496389078499038e+00 2.0507448492622449e-01  5.3526984852189408e-01 8.9889709186089339e-01 8.6460992241971202e-01  1.8077498558648405e-01 2.0267230020605442e+00 3.8601712429955554e-02  4.8395251120658256e-01 1.8038953302934519e+00 4.9431992666927138e-01  1.0159967397981784e+00 2.4455167530799313e+00 3.1466636050960672e-01  1.1476971151288515e+00 2.2400099571661896e+00 1.8392944488618151e-01  1.1068310250822411e+00 1.8826665787378662e+00 1.8919281896364656e-01  -2.2513546165132567e-01 1.0346559150234873e+00 8.6640407246487883e-01  7.1484088967195614e-01 1.2501951997210559e+00 7.4042323719722125e-01  5.3386810951802410e-01 1.4968073139964861e+00 6.9247679693694442e-01  -2.0574531073035512e-01 4.3824827823967610e-01 9.7631209580448175e-01  -1.0056928406485990e+00 1.5139012274263159e+00 3.9181141914674511e-01  -9.9776235909322752e-01 2.3067606440103132e+00 3.5828459209880553e-01  -1.0103847307856417e+00 6.4934444647243339e-01 1.6235230148859311e-01  4.1892237947663211e-02 1.8166236685421580e+00 1.5141407181686670e-01  5.7477943638047724e-01 4.3554039568894964e-01 8.4280106738355687e-01  2.3944761479021084e-01 4.1348213384308891e-01 9.7136807320876095e-01  1.1253185688383247e+00 2.6380820206505859e+00 2.0852344339745288e-01  7.9742003812836326e-01 2.2487891315866708e+00 4.1620488215305496e-01  -5.1016676337618228e-01 2.4754804285017884e+00 8.4522488491611314e-02  -5.2480513259611905e-01 1.8371971390430273e+00 5.0622296287327284e-01  1.0196619135664402e+00 2.0695317302036940e+00 3.8498571561221318e-01  -4.9535060540640092e-03 1.2271717753416864e+00 6.3481994269690234e-01  3.3091049517597865e-01 2.1356499429110829e+00 9.1865241415056711e-02  3.4684335556266727e-01 1.8725175088503929e+00 3.0699518448497609e-01  1.8661734167850431e-02 1.8060671287522487e-01 1.0069947412614317e+00  -7.7007041482759886e-01 2.5560564740899645e+00 2.7087655031814023e-01  1.7474158847792975e-01 1.6540298596028151e+00 3.2847272639975528e-01  3.2113824526159357e-01 2.4145060568592847e+00 -1.1997384026796397e-01  -3.1720153053787181e-01 5.7099369574059267e-01 9.4934765261910636e-01  -4.8876063518803148e-01 5.6744929011074074e-01 8.8945755032588414e-01  6.0830969793202780e-02 2.2706446081961000e+00 -2.0596691386598634e-01  -1.7686980435784022e-01 2.0212205389375026e+00 4.0262612546207270e-02  -9.0239848958292024e-01 6.3519714376865921e-01 4.9734827230207052e-01  -9.6741407015540493e-01 8.6171261893019591e-01 3.6579331263443360e-01  -3.6675037911384145e-01 2.1703171288345198e+00 1.0953673675042147e-01  -3.0813867125681327e-01 1.8816308786464568e+00 2.5808105143755233e-01  -1.0091960130640143e+00 2.8341472063180750e-01 1.4522862939499556e-01  7.8742491036514728e-01 1.3579790532939659e-01 6.4537992766289554e-01  -6.4321941752007239e-01 1.3892428486008512e-01 7.8862223089039574e-01  -1.0924608245110066e+00 1.7592514446641352e+00 1.6962273023338806e-01  1.0392044602273904e+00 1.3509130971511289e+00 1.7933497537648846e-01  -5.0173165613744930e-01 8.7452379056687168e-01 8.8053227939239798e-01  -5.9638632287369386e-01 7.3458256728887139e-01 8.3249062706956400e-01  7.2791623183893692e-03 1.5430548357538925e+00 3.6817263766167835e-01  -9.7402633504198122e-01 1.3937638475281783e-01 2.9534143153040843e-01  -5.7092291218008340e-01 2.6606622833926785e+00 3.4033195616929468e-02  1.0179497371073236e+00 8.5003887596332239e-01 1.3661209797812640e-01  -1.7429105924454755e-01 1.6975769847434119e+00 2.9326387131824944e-01  6.8472627291600097e-01 6.3511140088273388e-01 7.6695012318262046e-01  -9.1216205421640850e-01 3.5549799664175752e-01 4.6293738599060241e-01  2.1997194709606058e-01 2.2837596777468576e+00 -1.2973794182447237e-01  8.4396308695978961e-01 1.5831804017936999e+00 6.0824869555106942e-01  4.8944195761242043e-01 1.1886933547907910e+00 8.2313237061638467e-01  -3.0686080524110732e-01 2.3215693897559366e+00 -7.1513778214660928e-02  7.9633251160869101e-01 1.9556059997845261e+00 5.2707251524116006e-01  1.0017160386740158e+00 1.7411178978815969e+00 4.2840648119760238e-01  -7.4468811235390442e-01 4.5642995347791127e-01 7.0598915112294813e-01  2.1457045658551960e-01 7.4895528843964543e-01 9.6161699602648532e-01  -5.5944614892430522e-01 2.0963195369555732e+00 3.8226011191700926e-01  -6.0478535586030191e-01 1.2460245335055200e+00 7.8876741792490712e-01  -7.3481683184421231e-01 1.0352480666211785e+00 7.3617673590613963e-01  -7.9773871556243137e-01 1.3474297560542972e+00 6.7361718124242320e-01  9.4634838968027213e-01 9.3728428129222208e-01 4.3077997154444364e-01  -9.7988713019693718e-01 1.1794636666638867e+00 3.8082337525453946e-01  8.9770034792405207e-01 1.2509565105959489e-01 4.7952183249464669e-01  9.1719444894035507e-01 3.8397945665105920e-01 4.5412388868047754e-01  -6.2074460575120483e-01 1.5738072003423944e+00 6.7464865593763390e-01  9.8227871149340673e-01 1.4440426411886647e+00 4.3396232271636742e-01  -8.4960298052714145e-01