<?xml version="1.0"?>
<VTKFile type="UnstructuredGrid"  version="0.1"  >
<UnstructuredGrid>
<Piece  NumberOfPoints="758" NumberOfCells="1386">
<Points>
<DataArray  type="Float64"  NumberOfComponents="3"  format="ascii">-1.570796326794897 3.048 0  -1.570796326794897 0 0  1.570796326794897 0 0  1.570796326794897 3.048 0  0 0 0  0 3.048 0  -1.570796326794897 1.524 0  1.570796326794897 1.524 0  -0.04609926118424437 1.524 0  0.7853981633974483 0 0  0.7623485328053261 2.262242601661362 0  -0.7853981633974483 0 0  -0.7853981633974483 3.048 0  0.392699081698724 0.7745759241961347 0  -1.570796326794897 0.762 0  -0.8084477939895706 2.0955 0  -0.68277245543452 0.8915343570675713 0  0.7853981633974483 3.048 0  0.778743707341909 1.468410948960538 0  2.780093748954961e-16 2.285302774973185 0  -1.570796326794897 2.286 0  1.570796326794897 0.762 0  1.570796326794897 2.286 0  -0.9375370967763674 1.47348297960658 0  0.9831575747762593 0.9003629142671278 0  -0.3926990816987241 0.4064697549061488 0  1.177419588818055 1.905 0  0.3692901340097942 1.880893989147954 0  -0.4920225169641509 2.564371687128368 0  0.3926990816987241 3.048 0  1.178097245096172 0 0  1.155705348811136 2.643920532523289 0  -1.178097245096172 3.048 0  -1.178097245096172 0 0  -0.1391296372266528 0.8873724190154949 0  -1.10527745318919 2.528282743051346 0  -0.9817477042468103 0.4742759268549471 0  -0.3416666987802651 1.923944646262223 0  -1.570796326794897 1.905 0  -1.156555306160469 1.030861936336814 0  0.7648449098493205 0.4764142032227 0  0.3926990816987241 0 0  -0.4820376416180818 1.326151321396512 0  0.06374421723344185 0.4545169930886408 0  0.1972735722393064 1.163324878565267 0  0.3900417218314142 2.566922767651637 0  1.570796326794897 0.381 0  1.188877612935585 1.295195418509834 0  1.179914028402171 0.5308585702661928 0  0.7660075594126428 1.865233039449035 0  0.6330293131838399 1.095171663968746 0  -1.201232463242587 2.144287146570887 0  -0.3926990816987241 0 0  -0.3926990816987241 3.048 0  1.178097245096172 3.048 0  0.7684409382397209 2.649499271873753 0  -1.236954997304436 1.7145 0  -0.1088573452899617 2.666651387486592 0  -1.570796326794897 1.143 0  -1.570796326794897 0.381 0  1.570796326794897 1.143 0  1.570796326794897 1.905 0  1.570796326794897 2.667 0  -1.570796326794897 2.667 0  -0.6730839067294777 1.743003792473746 0  1.199831389396789 2.275437921225198 0  0.3936837537618041 1.495643752599615 0  0.01539369169800942 1.928544709491661 0  0.4156551272669651 0.4219033286010089 0  0.3401546043708642 2.225103550856524 0  -0.3379897306391274 2.262671266279809 0  -1.23624174049596 0.7000907110925838 0  -1.265224057170889 1.360131453617764 0  -0.1224339018241312 1.210043725539656 0  1.289286200625578 0.9918698881707442 0  -0.7751142346211329 1.197848666814478 0  1.003546186550495 0.2660297686099683 0  0.1963495408493621 2.808538634159524 0  -0.8079023568959116 2.703551618159924 0  -0.3480226984353056 1.610059855391589 0  1.075147893506229 1.598068412087719 0  -0.8290627893979112 2.399544545867518 0  0.6965048925255637 0.7972100472372819 0  -1.257765094876752 0.3107645483825858 0  -0.6724835324263325 0.5684215760013651 0  -0.3995059642389676 0.7173610149075536 0  0.9136951972244611 1.187564504803626 0  -0.964259350608907 0.8095514380783081 0  -0.7565990314517038 0.2897049735129544 0  -0.9603859887840651 1.834914433810327 0  -0.1457055965762301 0.2521630699436873 0  0.1963495408493621 0.2041911848053476 0  0.6241974196550791 0.231695999252114 0  -0.4098815011312292 1.029160072548571 0  0.9592800715482012 2.452820690856482 0  0.9648684169153161 2.840751931000357 0  0.5890486225480862 3.048 0  0.164631037784102 1.698913854044779 0  0.5664480837073581 2.070920238540226 0  1.374107957806476 1.7145 0  0.9861079629544779 2.102471438422718 0  -1.374446785945534 3.048 0  -1.288827800789186 2.762781313597598 0  1.353232957571468 2.835634774483438 0  1.302158670506274 0.2650078124691045 0  0.1394669809465775 0.8907702620243092 0  -0.5631487221059602 2.830992231257464 0  1.372837635547072 2.483038902756259 0  -0.1493395228831287 0.618617259260858 0  -1.32327048447753 2.378769394323546 0  0.56080204725298 1.699622905297025 0  1.570796326794897 2.0955 0  0.5403456747786348 2.786446773498672 0  -0.9817477042468103 0 0  -0.5847039960246873 2.326882432521036 0  0.1225428891326576 2.526494255738436 0  -0.9817477042468103 3.048 0  -0.5522901559753841 2.071668786267058 0  -1.370864794258017 0.9075071715671403 0  -1.043891045637083 1.250611220450313 0  -0.1652643923634778 2.09141301924679 0  -1.044446740946883 2.764982067459552 0  -0.1610370079820225 1.763280243096074 0  -0.3136912237752232 2.810498886211121 0  0.5400974078002052 2.370472734822523 0  -0.7009161718414544 1.427243880175582 0  0.902907438200502 0.6735032943420574 0  -0.9879196222361604 0.2371379634274736 0  1.319268546233604 0.7412771512308228 0  0.5578373583610097 0.608241627784878 0  0.5756483102040615 1.332636919938113 0  -0.5281701577409 0.2032348774530744 0  -0.266729509930448 2.489223923247521 0  -1.570796326794897 0.5715 0  -0.2430656531629531 1.405631921096758 0  0.253622337931223 0.5884397663452474 0  1.284044721043478 1.50372037617638 0  1.570796326794897 1.3335 0  -0.9904333867980613 2.235882060371517 0  0.9871146764618406 1.395690276854986 0  -1.374446785945534 0 0  0.3981951765262902 1.020833864419675 0  0.1670583512016766 1.405384478716078 0  -1.330327693484763 1.938638984813805 0  0.2106653067452682 2.040805097078886 0  1.570796326794897 0.5715 0  1.334822181490566 2.081373939821734 0  -0.9303227889097604 1.033236710715967 0  -1.34639228476592 1.150776798768373 0  -1.570796326794897 0.1905 0  1.106697207481837 1.099709897393925 0  0.4137866939027022 0.2104288000383385 0  -1.570796326794897 2.0955 0  0.9761377489246634 0.4754251272674608 0  1.377108465632662 0.4605024587280874 0  1.108114944719677 0.7297638044096917 0  0.3695908229138113 1.285681859811955 0  0.9799112840676307 1.800306505551499 0  -0.001696842075803034 1.042028929293442 0  1.366537356420357 1.185723700290463 0  -1.385029840108318 0.47625 0  0.05842649915411911 0.6874537157920781 0  -1.183268988745763 0.4997334438341218 0  -0.6073502281622543 1.081347079085406 0  -1.026941765261019 2.031536576622642 0  -1.570796326794897 2.8575 0  0.8159726599830506 1.011928543199529 0  0.7652782693277244 2.849245002237192 0  -0.5252326280373281 1.520125074885265 0  0.7648326174724897 2.063743853392348 0  0.757099741434616 1.666331708950521 0  -0.1963495408493621 3.048 0  -0.005410422648647092 2.843333256403111 0  -1.395368347654653 2.19075 0  1.374446785945534 0 0  0.9817477042468103 3.048 0  0.1963495408493621 0 0  -0.1963495408493621 0 0  0.5890486225480862 0 0  0.1963495408493621 3.048 0  0.9817477042468103 0 0  1.374446785945534 3.048 0  -0.5890486225480862 3.048 0  -0.5890486225480862 0 0  -0.06865319188571758 2.471928549109083 0  1.159049337209348 2.838090892449816 0  0.5817075150535711 2.596909954318943 0  0.7656515661107315 2.455866896253367 0  0.9620790410056582 2.647119292933887 0  0.3676829480103987 1.68739481709134 0  -0.8886101495223063 2.878912500124773 0  -0.3317793704126089 0.1873756770788371 0  -1.383208664444332 2.577695923010364 0  -1.043597917648523 1.648216005744782 0  -1.362178343413552 1.546177620526679 0  -1.570796326794897 1.7145 0  -0.8462722504471433 1.648434957877788 0  -0.588076822054871 0.3899352838051667 0  1.570796326794897 2.8575 0  -1.570796326794897 0.9525 0  1.570796326794897 0.1905 0  1.570796326794897 1.7145 0  1.570796326794897 0.9525 0  -1.570796326794897 1.3335 0  1.570796326794897 2.4765 0  -1.570796326794897 2.4765 0  0.8103777117362174 0.287468585434799 0  -1.145334531235929 1.881885620422454 0  -0.8620560674467429 0.6361265362229395 0  -0.321688879263093 1.207848147265888 0  -0.7798551871678058 1.904240998338365 0  -0.4724954359209014 1.769587110195458 0  -0.667402576232105 2.495985359319255 0  0.5365063314111709 0.8945566719544227 0  0.1855702280441107 2.342745654422604 0  0.55510120733165 1.88540118775351 0  1.188295809121239 2.460939894898248 0  1.38587897409014 2.260870763688798 0  1.383978812419919 1.901097375082534 0  -0.2265735189171196 1.049795314962436 0  0.7387890113368257 1.246392780742437 0  0.5763234466275948 1.516457524623135 0  -0.203279258075353 0.4348372558382012 0  -1.179202350299698 1.523245956950107 0  -1.151844216720993 2.318990544544152 0  -1.410806081599612 0.6547540757597369 0  0.04190096621848406 2.108399609871347 0  0.5925649981629265 0.4343292987553075 0  0.2371113691258682 0.4102816185532077 0  1.334103818253725 2.657728219912091 0  0.9405077369493808 2.275181409651143 0  -0.633962040105568 2.669303984283053 0  -0.6045614816381242 1.904349918307267 0  1.159697673803787 2.079238591118184 0  -0.004643801590645341 1.347662554528907 0  0.3691400131247499 2.395423267764724 0  0.3855005143298051 2.055603978165229 0  0.01839821075864462 0.1788084577298442 0  -0.9568120219060965 2.61629404172056 0  0.1783135820912846 1.871116340262054 0  0.3649950158263953 2.745288921627024 0  -0.3142054567155264 0.5671999812317062 0  -0.4933549623779417 0.564740705097546 0  0.06092775470575962 2.685867440722903 0  -0.1801827362748675 2.337517890002858 0  -1.063355415037434 0.6386189748554 0  -1.205242865599393 0.8676070232612285 0  -0.4176020549597784 2.412196127179313 0  -0.3347051678178828 2.093252344225509 0  -1.427772711006951 0.2857500000000001 0  0.8835729338221293 0.1362887052191026 0  -0.6831011505337878 0.1389086130988801 0  -1.403875662049666 1.77648180985222 0  1.394165436236593 1.362588987767805 0  -0.5007942298153729 0.8700626692351643 0  -0.6093220848169366 0.7321530406295067 0  0.007534593095922887 1.760126887057542 0  -1.276272015520854 0.140425968067263 0  -0.7270478511000733 2.847016806985676 0  1.436331331726002 0.85725 0  -0.1770320080670663 1.927167796173981 0  0.7200726153501196 0.6345534912379586 0  -1.099983122078282 0.3577316115390257 0  0.2324759135153202 2.648405702327079 0  0.9054371869972004 1.582409569434113 0  0.5000672234640285 1.188708149930449 0  -0.340793734207542
[...]
<PointData  Vectors="phi"> 
<DataArray  type="Float64"  Name="phi"  NumberOfComponents="3" format="ascii">-1.2461643118790100e+00 3.0251090384693122e+00 3.9880250374578984e-04  -1.0160115572569755e+00 8.9561023365486453e-08 -9.3500937344886143e-06  1.0160116310240435e+00 6.2349824486962573e-08 -1.1168053507743067e-05  1.2464302071382505e+00 3.0250461548618026e+00 3.2300837257829873e-04  -5.9338211920972771e-06 5.2419843565808471e-07 1.0160210051260921e+00  -7.9276237655596547e-04 2.5246565032109030e+00 -4.8058598197139896e-01  -1.0692742613306983e+00 1.5096335656635569e+00 -1.6840351130077405e-05  1.0696801255790893e+00 1.5095550301341329e+00 -2.5543602584483199e-05  -4.6934168366616152e-02 1.3527676291927824e+00 4.9840041329446799e-01  7.1842694392210638e-01 -2.1272290892495260e-07 7.1841657778555046e-01  6.2486202267799484e-01 2.1871435924009726e+00 3.6405625024299509e-01  -7.1842404662914594e-01 -8.1424658161458581e-08 7.1841847824020255e-01  -6.0450743967918108e-01 2.8423097543676348e+00 -6.8673133651519433e-02  3.9715841450103612e-01 7.7896051722725934e-01 9.2167469543671010e-01  -1.0236171495801769e+00 7.5557436237850917e-01 -2.1583989586579828e-05  -6.8538103003840734e-01 2.0570341579748845e+00 4.6234913649263693e-01  -6.6405382213793518e-01 8.9399543277492044e-01 7.9042948033582927e-01  6.0408440016715148e-01 2.8416829637639553e+00 -7.0376990214185586e-02  7.3476373999212508e-01 1.4703646612781218e+00 6.8191271269104126e-01  -5.6336193781773055e-04 1.9454603472821017e+00 1.8095820700564917e-02  -1.1838604094006906e+00 2.2618556030073735e+00 2.2707373974782793e-05  1.0236533564644272e+00 7.5555254963155427e-01 -3.0623452621816629e-05  1.1845098976534882e+00 2.2617149740707929e+00 -6.4189079683410062e-05  -8.7020945135092209e-01 1.4733711964417067e+00 5.9658705592837291e-01  8.7216868354359878e-01 8.9739376659514558e-01 5.6930648345563173e-01  -3.9200247107040254e-01 4.0894600932015079e-01 9.3109396769191732e-01  1.0294007646451415e+00 1.8952800688327580e+00 3.8209119084925536e-01  3.3557161729780327e-01 1.7192443558392734e+00 3.8404493292693492e-01  -4.1395160788294838e-01 2.3186913318796840e+00 4.2547528822387298e-02  3.3519025351940435e-01 2.6607072929265616e+00 -3.0643651898056684e-01  9.3865744086952163e-01 -4.3345876651184130e-07 3.8880529822513638e-01  9.5331425514173906e-01 2.6177117435184454e+00 2.7084026075150458e-01  -9.2239828181339445e-01 2.9913934702002716e+00 1.2183879098718735e-01  -9.3865723007232416e-01 -1.8456712435595492e-07 3.8881449447336408e-01  -1.4054720680028820e-01 8.8352967498353085e-01 9.2648282907543333e-01  -9.1944390520027186e-01 2.5039063326731181e+00 3.1353573921199118e-01  -8.5531101381946595e-01 4.7220120668930105e-01 5.6789869174452656e-01  -3.1420018717977016e-01 1.7422803880786057e+00 3.4423827900008269e-01  -1.1268611916875770e+00 1.8846432632999233e+00 -2.5144811418701600e-05  -9.5846313227193702e-01 1.0247586775664974e+00 4.1293424919775906e-01  7.1429765570764137e-01 4.7618053474769667e-01 7.3652147126243395e-01  3.8881375422286307e-01 1.0115133507902956e-06 9.3866790837756642e-01  -4.5605456596565025e-01 1.3064066069358446e+00 7.4988487721541941e-01  6.4808249537697621e-02 4.5798621524136024e-01 9.8992574836591041e-01  1.9428944081265190e-01 1.1070057126519346e+00 7.6550707407435548e-01  3.4233507794309193e-01 2.2742500542299595e+00 -1.9794110035073607e-02  1.0198495928323303e+00 3.7784008414645981e-01 -1.9561365924785947e-05  9.8916488697436722e-01 1.2870605434900289e+00 3.8292297483052112e-01  9.4866488047092890e-01 5.2729854310147961e-01 3.8913037682657381e-01  6.7341997535687148e-01 1.8422516676909759e+00 5.5468969944843272e-01  6.2237597539077250e-01 1.0996936543218669e+00 8.0465208389741616e-01  -1.0433185657866719e+00 2.1329825893851342e+00 3.4645002580148865e-01  -3.8880194581681649e-01 -3.2953537660123948e-07 9.3865722061002088e-01  -3.3631936867202000e-01 2.6611690578495217e+00 -3.0538039464778916e-01  9.2202989063165586e-01 2.9908991802538489e+00 1.2010214537788264e-01  6.0393212204344282e-01 2.5112158102604303e+00 1.5283985730397540e-01  -1.0452781691228974e+00 1.7025901195906727e+00 3.3446094713031438e-01  -1.0928269594299311e-01 2.2549963535781865e+00 -2.0566881441414459e-01  -1.0347240798484640e+00 1.1331851676006868e+00 -2.4017778713829802e-05  -1.0198557911694179e+00 3.7785025346095891e-01 -2.4535877768167374e-05  1.0348343724037194e+00 1.1331479927285812e+00 -1.2438362875647338e-05  1.1274872875296833e+00 1.8845087677243484e+00 -4.8242779413397751e-05  1.2257702340421150e+00 2.6426358232889808e+00 -6.7041794246003639e-05  -1.2248910856095807e+00 2.6427812813371268e+00 2.5716801968777545e-05  -5.9818969697923530e-01 1.7135609254997599e+00 5.9359254968438491e-01  1.0359757730306469e+00 2.2632488232933139e+00 3.3304556853787504e-01  3.6490691916766882e-01 1.4220056049100194e+00 6.2694140327515535e-01  1.5143455447023609e-02 1.6654839171325091e+00 2.4010717698895551e-01  4.1400113587585785e-01 4.2435702647651147e-01 9.2264669282483791e-01  3.0988620962328822e-01 1.9800217680990739e+00 1.5912190000978238e-01  -3.0886775701374003e-01 2.0091250809735959e+00 1.3570043441842256e-01  -9.7174130097653344e-01 6.9515050739620265e-01 3.3544937653788648e-01  -1.0165849964679983e+00 1.3501742404378252e+00 3.0844874491598401e-01  -1.2267533188365617e-01 1.1260519324757736e+00 7.1665333495022754e-01  9.9638561586831909e-01 9.8450923577547422e-01 2.8392767907272359e-01  -7.4524760049528305e-01 1.2007538214825266e+00 7.2275363918769087e-01  8.6196136227871523e-01 2.6468288929059652e-01 5.4782549857406193e-01  1.8634121421758196e-01 2.3910186268315687e+00 -2.6322748223950532e-01  -6.3179597523650821e-01 2.5722578461343963e+00 1.4441612055954900e-01  -3.2367372534081967e-01 1.4968408766623378e+00 5.3877046660077621e-01  9.6274098566116506e-01 1.5928982554944260e+00 4.8326723591910975e-01  -6.7044899992609042e-01 2.3263927940818592e+00 3.2053094740188348e-01  6.7185425885381367e-01 7.9889133926325617e-01 7.8244664594613511e-01  -9.7123629519517374e-01 3.0847256149535751e-01 3.1389408012949316e-01  -6.4503712468385421e-01 5.6936817420578001e-01 7.9704213294846760e-01  -4.0321072275631548e-01 7.2147090223161525e-01 9.2238863194760434e-01  8.4726122354747557e-01 1.1866189966951055e+00 6.2677840379980809e-01  -8.5717868489440807e-01 8.0696290959356032e-01 5.8474407736501843e-01  -7.0318110162554748e-01 2.8942928671094764e-01 7.4105607453113997e-01  -8.6842312374645514e-01 1.8321460988122225e+00 5.3389234578597011e-01  -1.4752540530131739e-01 2.5439010250475469e-01 9.9362682815167813e-01  1.9829666164800441e-01 2.0598841094097700e-01 9.8851628260281021e-01  5.9740980048173264e-01 2.3207434979220098e-01 8.2520423455356240e-01  -4.0745940575953116e-01 1.0299524992527489e+00 8.7260979698344310e-01  7.8457023087502986e-01 2.4092299392820458e+00 3.3248084291486246e-01  7.5034377362225835e-01 2.7452986851025640e+00 1.4231276517564115e-01  4.7039101653860055e-01 2.7509845578710208e+00 -1.8880097208462165e-01  1.6212462930349328e-01 1.5072556368178149e+00 4.1024442130789701e-01  4.7968417580595096e-01 1.9536758814328945e+00 3.7604984530751628e-01  1.0813836551704583e+00 1.6987031704738176e+00 1.9957893333599919e-01  8.6021365221039403e-01 2.0913516533243253e+00 4.6026109747550970e-01  -1.1193619001489998e+00 3.0240895335842981e+00 1.3624009609243742e-01  -1.0693383003863264e+00 2.7414843483437230e+00 2.1303780738265787e-01  1.1211195828156337e+00 2.8144087789625840e+00 1.7403164314091590e-01  9.8329385927428870e-01 2.6299171797931903e-01 2.7043461286843140e-01  1.4063583510242988e-01 8.8655748640411969e-01 9.2486882016626271e-01  -4.5539168484833281e-01 2.5665376831817102e+00 -7.2400079433001224e-02  1.1506535628569878e+00 2.4634145554474252e+00 1.8927643070469632e-01  -1.5246721879013223e-01 6.2245402543610018e-01 9.7664494751370723e-01  -1.1202817539674217e+00 2.3612689480351916e+00 2.3520438478985570e-01  4.9824313675334736e-01 1.6449211853447201e+00 5.8021607870500858e-01  1.1573407602844119e+00 2.0726751276282505e+00 -2.0513896300000140e-05  4.4019928270588843e-01 2.5197295998594917e+00 -6.0889557001108083e-02  -8.4477560843830335e-01 3.0438441270115468e-08 5.6446294522594787e-01  -4.8347499613793565e-01 2.1695411339143598e+00 2.3823797222406926e-01  1.2131386592236547e-01 2.1475930724414947e+00 -1.1550844295263801e-01  -7.5054342038132205e-01 2.9259218104414186e+00 4.0463130082267519e-02  -4.6940810964011825e-01 1.9485962357272126e+00 3.6893726422014245e-01  -1.0097644062201372e+00 9.0028665088618298e-01 2.0255868514641681e-01  -9.2583606921810535e-01 1.2461003034046678e+00 5.1757680279674001e-01  -1.6324811697037550e-01 1.8147163664687915e+00 1.6575189129709428e-01  -8.2847487700794342e-01 2.7058186657052827e+00 2.1171055668087674e-01  -1.5943029822586635e-01 1.5564715132270668e+00 3.6885157586365869e-01  -2.8147393262848502e-01 2.4379191547055035e+00 -2.0622682761692313e-01  4.5040341277804175e-01 2.1844670038786109e+00 1.8554490151541911e-01  -6.6350806981664334e-01 1.4275148577928456e+00 7.1434166292360679e-01  8.1516994752473759e-01 6.7184057539831710e-01 6.3428997216896688e-01  -8.5263975797439162e-01 2.3598160691958736e-01 5.6093510013343451e-01  9.9500944642146305e-01 7.3558087397913552e-01 2.5398858855914130e-01  5.4836541050551890e-01 6.1062196248867773e-01 8.5995759486718581e-01  5.4793408062125204e-01 1.3273222178507684e+00 7.5677655302148972e-01  -5.1438397787451240e-01 2.0395731266560491e-01 8.7708414209940622e-01  -2.5083394371708695e-01 2.1614051415560773e+00 -3.7742373240196810e-02  -1.0210562733305117e+00 5.6672087710981889e-01 -1.5463205410445469e-05  -2.3567147952397807e-01 1.3021348835576489e+00 6.2241553774255998e-01  2.5746801087768040e-01 5.9229747461301296e-01 9.6263019494918378e-01  1.0366936656175696e+00 1.4920420307874771e+00 2.8986440765265131e-01  1.0481023273734111e+00 1.3216536641833172e+00 -1.5072999738145822e-05  -8.4609578865668900e-01 2.2175016575815558e+00 4.1962793512987778e-01  9.0281371167002122e-01 1.3933751247903590e+00 5.6341977456516534e-01  -9.9647463376737444e-01 -6.5563658429061738e-07 1.9820651448395457e-01  3.9603633146981088e-01 1.0214485271557332e+00 8.7568559238391430e-01  1.6505405519631025e-01 1.2814194731684883e+00 5.9789914624077278e-01  -1.0981509309420405e+00 1.9220356705938262e+00 2.4155714877959905e-01  2.0364379839320979e-01 1.7875296352166683e+00 2.1275090199720390e-01  1.0210695879837042e+00 5.6670381813569837e-01 -2.7384413109289531e-05  1.1133463931626135e+00 2.0638505183343767e+00 2.3495399736729333e-01  -8.4907977325542616e-01 1.0313321082614859e+00 6.1430332478622285e-01  -1.0162587321121168e+00 1.1417298007248302e+00 2.2723302835156481e-01  -1.0183031008519106e+00 1.8896944993279968e-01 -3.3286421427208044e-05  9.4360121177249467e-01 1.0940954166988615e+00 4.6010514095629451e-01  4.0999589111582513e-01 2.1166226928390044e-01 9.2744090068897767e-01  -1.1564874123350648e+00 2.0728251515955853e+00 -3.0501873568061314e-05  8.5225606528133946e-01 4.7338472437384599e-01 5.7268468647246373e-01  1.0023042568993616e+00 4.5682206595696412e-01 1.9619284908130802e-01  9.2562062235626896e-01 7.2564259237745055e-01 4.5697054396166947e-01  3.5196060814455427e-01 1.2457179052263065e+00 7.4090443707821585e-01  8.8875676327038666e-01 1.7980906669173344e+00 5.3023104297608947e-01  -1.8586052313708410e-03 9.9754905036383379e-01 8.2431326105867286e-01  1.0219255823206170e+00 1.1761820679694079e+00 2.0704978449195047e-01  -1.0038842464464819e+00 4.7244177222728051e-01 1.8824650442729815e-01  5.9783273784293677e-02 6.9083914532857316e-01 9.7792863215087300e-01  -9.4921038314226713e-01 4.9636139782134781e-01 3.8585940322794976e-01  -5.9898772377568754e-01 1.0859801257475381e+00 8.1722188019311770e-01  -9.0852057817924448e-01 2.0249026409587154e+00 4.6511863233248157e-01  -1.2373990687865319e+00 2.8341237491813684e+00 1.2648717214001564e-04  7.7203600338751988e-01 1.0125724334462944e+00 7.0199149146851825e-01  5.9435873955392293e-01 2.6724266593937935e+00 3.5108564732295108e-02  -4.8087821495343663e-01 1.4829442067171668e+00 6.6298718936988110e-01  6.4754598142387565e-01 2.0176388300916459e+00 4.6503959837829500e-01  6.9072036974762341e-01 1.6585260099548287e+00 6.3069346380855551e-01  -1.8577312980746988e-01 2.5785038218953917e+00 -4.1178528761130939e-01  -6.2433675018766979e-03 2.3805685351063230e+00 -3.3150691426929624e-01  -1.1435520226329570e+00 2.1705496238463833e+00 1.7551915219753653e-01  9.9647595134126421e-01 -6.2205381242658379e-07 1.9820942520040363e-01  7.5023183788843373e-01 2.9253253439120921e+00 3.8533894903722353e-02  1.9820793732000627e-01 1.3968730380158808e-06 9.9649210285253542e-01  -1.9821645260660581e-01 2.8203238596128299e-07 9.9648257379199279e-01  5.6445623362671471e-01 2.0683580662259436e-07 8.4477737586483437e-01  1.8427976041973457e-01 2.5782169550093710e+00 -4.1249391882603659e-01  8.4477858574533604e-01 -2.1998936212886856e-07 5.6446234270855034e-01  1.1189766434646662e+00 3.0241200639267016e+00 1.3532823749807199e-01  -4.7117047553838065e-01 2.7515007340817288e+00 -1.8745601137412995e-01  -5.6446410701222649e-01 -2.4891823983147745e-07 8.4477217610879929e-01  -6.9889416526703621e-02 2.0960043740315886e+00 -9.2476250409698979e-02  9.2991922605433275e-01 2.7970132970260559e+00 2.0154558129048178e-01  4.7303387498085092e-01 2.3859706523714350e+00 7.6171117482654357e-02  6.1251352161538264e-01 2.3505392029227772e+00 2.6078458066352483e-01  7.6461314486799747e-01 2.5798246333533381e+00 2.4179729694999955e-01  3.3765263957221475e-01 1.5653476441793079e+00 5.0059779159790019e-01  -6.8628492713632083e-01 2.7488313616986759e+00 8.6558048974404875e-02  -3.3165466192530418e-01 1.8872817710147730e-01 9.5649450387197132e-01  -1.1571347718733125e+00 2.5577568123492584e+00 1.7700782856929020e-01  -9.4399677513384084e-01 1.6445380898741648e+00 5.0600864175650406e-01  -1.0567574004981006e+00 1.5327800116408055e+00 2.1179721613739100e-01  -1.0968090668986086e+00 1.6970927245614966e+00 -3.0119928867340778e-05  -7.8125092355260994e-01 1.6478388412061611e+00 6.1862723420825760e-01  -5.7008301349197155e-01 3.9101308446416128e-01 8.4554271209901133e-01  1.2383746119460568e+00 2.8339700186462582e+00 -1.9444282093740541e-06  -1.0277530211283183e+00 9.4440641958800753e-01 -1.7264145424413877e-05  1.0182933541527444e+00 1.8896484008254055e-01 -2.9241431634333944e-05  1.0973942926115519e+00 1.6969787835919834e+00 -1.6692027111638820e-05  1.0278164392721618e+00 9.4437740098570300e-01 -4.8365661688345123e-05  -1.0478709774341408e+00 1.3217042153990024e+00 -3.0945433915826558e-05  1.2076651432741321e+00 2.4517779534177340e+00 -2.9987789923951902e-05  -1.2068509919384003e+00 2.4519213993344948e+00 3.4788062635454609e-05  7.4201332636634532e-01 2.8690290743960828e-01 7.0265501530813190e-01  -1.0097763575930190e+00 1.8737983776815457e+00 4.1002170092067347e-01  -7.8748414607434780e-01 6.3496145400454285e-01 6.6613811874344397e-01  -3.1086676245793032e-01 1.1708870399757876e+00 7.7246276631224808e-01  -6.8233871426132975e-01 1.8802298407911884e+00 5.4101673967934993e-01  -4.2007636497532019e-01 1.6714469715313436e+00 5.0310691328093282e-01  -5.3631907306269344e-01 2.3432259524496448e+00 1.8694484569953621e-01  5.3537017458304315e-01 8.9893723708801543e-01 8.6417200368612135e-01  1.8058786778319894e-01 2.0182629005686707e+00 1.7275939294007302e-02  4.8049976982980247e-01 1.7973689599833518e+00 4.7604469815998351e-01  1.0091665997114900e+00 2.4451597349601024e+00 3.0929414421444984e-01  1.1467122924015578e+00 2.2407447433941274e+00 1.8346823350233840e-01  1.1081880308224237e+00 1.8830128291991832e+00 1.8904750391880665e-01  -2.2411539373192846e-01 1.0267027626672025e+00 8.4598115224992165e-01  7.1295995461286876e-01 1.2502438889951903e+00 7.3732300550740526e-01  5.2930375885900560e-01 1.4922758097192641e+00 6.7741498116643273e-01  -2.0589596873743460e-01 4.3811485173256004e-01 9.7680830107250227e-01  -1.0066840227466525e+00 1.5141613791292150e+00 3.9163662759186896e-01  -9.9153345574817819e-01 2.3064795240626395e+00 3.5321980838717754e-01  -1.0103109420884677e+00 6.4944239834935613e-01 1.6234280920948099e-01  4.1843869177748273e-02 1.8077680789274566e+00 1.2952876288725657e-01  5.7488429246871098e-01 4.3555510261328051e-01 8.4294755745770411e-01  2.3959310866394665e-01 4.1337072583006512e-01 9.7177577808759108e-01  1.1193544262341113e+00 2.6386244527608436e+00 2.0593922047874219e-01  7.9011436985879779e-01 2.2460036130087180e+00 4.0463902070393482e-01  -5.0728628875227078e-01 2.4687572552539123e+00 6.5900777977037722e-02  -5.2067732178616999e-01 1.8312630950290314e+00 4.8889425467716779e-01  1.0158237751990733e+00 2.0698078734350185e+00 3.8209940565421735e-01  -4.9845284798255675e-03 1.2168123493479148e+00 6.1126448981432779e-01  3.2995826184071075e-01 2.1277691550191395e+00 7.1442774951293919e-02  3.4568450474683327e-01 1.8645178054582541e+00 2.8650919142595049e-01  1.8664980195994548e-02 1.8054695571174331e-01 1.0070352682342167e+00  -7.6320196382824557e-01 2.5520643465598210e+00 2.5689492515641121e-01  1.7457573265408688e-01 1.6451015671575946e+00 3.0660734847473581e-01  3.2007684031694056e-01 2.4068427641481116e+00 -1.4015272799554132e-01  -3.1755671281144199e-01 5.7087503556572694e-01 9.5022799099935684e-01  -4.8909897269856240e-01 5.6743812045308173e-01 8.9003469571125582e-01  6.0761067003305344e-02 2.2621333918595661e+00 -2.2740268699852634e-01  -1.7678668999207200e-01 2.0127672838181612e+00 1.8957403897467612e-02  -9.0228096619481524e-01 6.3530198443447072e-01 4.9730705873257719e-01  -9.6737548960842445e-01 8.6184514545946722e-01 3.6578824527869597e-01  -3.6553738228520716e-01 2.1626622587229813e+00 8.9484585111208853e-02  -3.0742282417622441e-01 1.8734592528576159e+00 2.3733005628631151e-01  -1.0091368784750168e+00 2.8345791719604146e-01 1.4522143755773045e-01  7.8741904734354073e-01 1.3581517836674956e-01 6.4537077792030051e-01  -6.4323154677387551e-01 1.3893176367060794e-01 7.8862081241323234e-01  -1.0943358588983432e+00 1.7594659806674817e+00 1.6956928728758761e-01  1.0403588292250616e+00 1.3510439177146940e+00 1.7936406462134563e-01  -5.0183033515015374e-01 8.7452923029445262e-01 8.8010507412120298e-01  -5.9691047007128861e-01 7.3464700529303950e-01 8.3315096438221858e-01  7.2410380489430154e-03 1.5337650182577438e+00 3.4576855734120848e-01  -9.7399964607045875e-01 1.3939765142566488e-01 2.9533504633418783e-01  -5.6755946000038004e-01 2.6542455767500055e+00 1.5903019570299923e-02  1.0177908615858964e+00 8.5016603855157835e-01 1.3659850396834580e-01  -1.7420474726576352e-01 1.6887344669083373e+00 2.7150680767766544e-01  6.8491971466578117e-01 6.3518787974640190e-01 7.6718359480977638e-01  -9.1208975549960347e-01 3.5555600353489120e-01 4.6290733908658555e-01  2.1957831393532987e-01 2.2756406870671877e+00 -1.5061733550922191e-01  8.4062129258367657e-01 1.5831681480592874e+00 6.0429228599679641e-01  4.8585993475345685e-01 1.1860741950677813e+00 8.1174062898794397e-01  -3.0607713592854591e-01 2.3137984750551688e+00 -9.1827587186278578e-02  7.8971133235086755e-01 1.9537484984600326e+00 5.1757673996583475e-01  1.0007177819623734e+00 1.7415266456679857e+00 4.2715507594263058e-01  -7.4464901690106311e-01 4.5649190559837055e-01 7.0597422392773501e-01  2.1457407846571225e-01 7.4846186514172541e-01 9.6036740448783031e-01  -5.5506659353521803e-01 2.0904190137036798e+00 3.6496556877525804e-01  -6.0138714134626436e-01 1.2450456770701861e+00 7.8164476771566493e-01  -7.3521719334675018e-01 1.0354663416446759e+00 7.3617687046800484e-01  -7.9617545279366952e-01 1.3476515298322547e+00 6.7134438720528700e-01  9.4651289445461295e-01 9.3742781282450938e-01 4.3083140060923797e-01  -9.8060367921101421e-01 1.1796264252520627e+00 3.8091787668159199e-01  8.9768610954130723e-01 1.2511450028631654e-01 4.7951467896197791e-01  9.1711574316296740e-01 3.8404218627870668e-01 4.5409261402917162e-01  -6.1540412047070170e-01 1.5706873402463393e+00 6.6229655114413433e-01  9.8317688881751597e-01 1.4443068207406253e+00 4.3380576035816332e-01  -8.4202404367638217e-0