<?xml version="1.0"?>
<VTKFile type="UnstructuredGrid"  version="0.1"  >
<UnstructuredGrid>
<Piece  NumberOfPoints="758" NumberOfCells="1386">
<Points>
<DataArray  type="Float64"  NumberOfComponents="3"  format="ascii">-1.570796326794897 3.048 0  -1.570796326794897 0 0  1.570796326794897 0 0  1.570796326794897 3.048 0  0 0 0  0 3.048 0  -1.570796326794897 1.524 0  1.570796326794897 1.524 0  -0.04609926118424437 1.524 0  0.7853981633974483 0 0  0.7623485328053261 2.262242601661362 0  -0.7853981633974483 0 0  -0.7853981633974483 3.048 0  0.392699081698724 0.7745759241961347 0  -1.570796326794897 0.762 0  -0.8084477939895706 2.0955 0  -0.68277245543452 0.8915343570675713 0  0.7853981633974483 3.048 0  0.778743707341909 1.468410948960538 0  2.780093748954961e-16 2.285302774973185 0  -1.570796326794897 2.286 0  1.570796326794897 0.762 0  1.570796326794897 2.286 0  -0.9375370967763674 1.47348297960658 0  0.9831575747762593 0.9003629142671278 0  -0.3926990816987241 0.4064697549061488 0  1.177419588818055 1.905 0  0.3692901340097942 1.880893989147954 0  -0.4920225169641509 2.564371687128368 0  0.3926990816987241 3.048 0  1.178097245096172 0 0  1.155705348811136 2.643920532523289 0  -1.178097245096172 3.048 0  -1.178097245096172 0 0  -0.1391296372266528 0.8873724190154949 0  -1.10527745318919 2.528282743051346 0  -0.9817477042468103 0.4742759268549471 0  -0.3416666987802651 1.923944646262223 0  -1.570796326794897 1.905 0  -1.156555306160469 1.030861936336814 0  0.7648449098493205 0.4764142032227 0  0.3926990816987241 0 0  -0.4820376416180818 1.326151321396512 0  0.06374421723344185 0.4545169930886408 0  0.1972735722393064 1.163324878565267 0  0.3900417218314142 2.566922767651637 0  1.570796326794897 0.381 0  1.188877612935585 1.295195418509834 0  1.179914028402171 0.5308585702661928 0  0.7660075594126428 1.865233039449035 0  0.6330293131838399 1.095171663968746 0  -1.201232463242587 2.144287146570887 0  -0.3926990816987241 0 0  -0.3926990816987241 3.048 0  1.178097245096172 3.048 0  0.7684409382397209 2.649499271873753 0  -1.236954997304436 1.7145 0  -0.1088573452899617 2.666651387486592 0  -1.570796326794897 1.143 0  -1.570796326794897 0.381 0  1.570796326794897 1.143 0  1.570796326794897 1.905 0  1.570796326794897 2.667 0  -1.570796326794897 2.667 0  -0.6730839067294777 1.743003792473746 0  1.199831389396789 2.275437921225198 0  0.3936837537618041 1.495643752599615 0  0.01539369169800942 1.928544709491661 0  0.4156551272669651 0.4219033286010089 0  0.3401546043708642 2.225103550856524 0  -0.3379897306391274 2.262671266279809 0  -1.23624174049596 0.7000907110925838 0  -1.265224057170889 1.360131453617764 0  -0.1224339018241312 1.210043725539656 0  1.289286200625578 0.9918698881707442 0  -0.7751142346211329 1.197848666814478 0  1.003546186550495 0.2660297686099683 0  0.1963495408493621 2.808538634159524 0  -0.8079023568959116 2.703551618159924 0  -0.3480226984353056 1.610059855391589 0  1.075147893506229 1.598068412087719 0  -0.8290627893979112 2.399544545867518 0  0.6965048925255637 0.7972100472372819 0  -1.257765094876752 0.3107645483825858 0  -0.6724835324263325 0.5684215760013651 0  -0.3995059642389676 0.7173610149075536 0  0.9136951972244611 1.187564504803626 0  -0.964259350608907 0.8095514380783081 0  -0.7565990314517038 0.2897049735129544 0  -0.9603859887840651 1.834914433810327 0  -0.1457055965762301 0.2521630699436873 0  0.1963495408493621 0.2041911848053476 0  0.6241974196550791 0.231695999252114 0  -0.4098815011312292 1.029160072548571 0  0.9592800715482012 2.452820690856482 0  0.9648684169153161 2.840751931000357 0  0.5890486225480862 3.048 0  0.164631037784102 1.698913854044779 0  0.5664480837073581 2.070920238540226 0  1.374107957806476 1.7145 0  0.9861079629544779 2.102471438422718 0  -1.374446785945534 3.048 0  -1.288827800789186 2.762781313597598 0  1.353232957571468 2.835634774483438 0  1.302158670506274 0.2650078124691045 0  0.1394669809465775 0.8907702620243092 0  -0.5631487221059602 2.830992231257464 0  1.372837635547072 2.483038902756259 0  -0.1493395228831287 0.618617259260858 0  -1.32327048447753 2.378769394323546 0  0.56080204725298 1.699622905297025 0  1.570796326794897 2.0955 0  0.5403456747786348 2.786446773498672 0  -0.9817477042468103 0 0  -0.5847039960246873 2.326882432521036 0  0.1225428891326576 2.526494255738436 0  -0.9817477042468103 3.048 0  -0.5522901559753841 2.071668786267058 0  -1.370864794258017 0.9075071715671403 0  -1.043891045637083 1.250611220450313 0  -0.1652643923634778 2.09141301924679 0  -1.044446740946883 2.764982067459552 0  -0.1610370079820225 1.763280243096074 0  -0.3136912237752232 2.810498886211121 0  0.5400974078002052 2.370472734822523 0  -0.7009161718414544 1.427243880175582 0  0.902907438200502 0.6735032943420574 0  -0.9879196222361604 0.2371379634274736 0  1.319268546233604 0.7412771512308228 0  0.5578373583610097 0.608241627784878 0  0.5756483102040615 1.332636919938113 0  -0.5281701577409 0.2032348774530744 0  -0.266729509930448 2.489223923247521 0  -1.570796326794897 0.5715 0  -0.2430656531629531 1.405631921096758 0  0.253622337931223 0.5884397663452474 0  1.284044721043478 1.50372037617638 0  1.570796326794897 1.3335 0  -0.9904333867980613 2.235882060371517 0  0.9871146764618406 1.395690276854986 0  -1.374446785945534 0 0  0.3981951765262902 1.020833864419675 0  0.1670583512016766 1.405384478716078 0  -1.330327693484763 1.938638984813805 0  0.2106653067452682 2.040805097078886 0  1.570796326794897 0.5715 0  1.334822181490566 2.081373939821734 0  -0.9303227889097604 1.033236710715967 0  -1.34639228476592 1.150776798768373 0  -1.570796326794897 0.1905 0  1.106697207481837 1.099709897393925 0  0.4137866939027022 0.2104288000383385 0  -1.570796326794897 2.0955 0  0.9761377489246634 0.4754251272674608 0  1.377108465632662 0.4605024587280874 0  1.108114944719677 0.7297638044096917 0  0.3695908229138113 1.285681859811955 0  0.9799112840676307 1.800306505551499 0  -0.001696842075803034 1.042028929293442 0  1.366537356420357 1.185723700290463 0  -1.385029840108318 0.47625 0  0.05842649915411911 0.6874537157920781 0  -1.183268988745763 0.4997334438341218 0  -0.6073502281622543 1.081347079085406 0  -1.026941765261019 2.031536576622642 0  -1.570796326794897 2.8575 0  0.8159726599830506 1.011928543199529 0  0.7652782693277244 2.849245002237192 0  -0.5252326280373281 1.520125074885265 0  0.7648326174724897 2.063743853392348 0  0.757099741434616 1.666331708950521 0  -0.1963495408493621 3.048 0  -0.005410422648647092 2.843333256403111 0  -1.395368347654653 2.19075 0  1.374446785945534 0 0  0.9817477042468103 3.048 0  0.1963495408493621 0 0  -0.1963495408493621 0 0  0.5890486225480862 0 0  0.1963495408493621 3.048 0  0.9817477042468103 0 0  1.374446785945534 3.048 0  -0.5890486225480862 3.048 0  -0.5890486225480862 0 0  -0.06865319188571758 2.471928549109083 0  1.159049337209348 2.838090892449816 0  0.5817075150535711 2.596909954318943 0  0.7656515661107315 2.455866896253367 0  0.9620790410056582 2.647119292933887 0  0.3676829480103987 1.68739481709134 0  -0.8886101495223063 2.878912500124773 0  -0.3317793704126089 0.1873756770788371 0  -1.383208664444332 2.577695923010364 0  -1.043597917648523 1.648216005744782 0  -1.362178343413552 1.546177620526679 0  -1.570796326794897 1.7145 0  -0.8462722504471433 1.648434957877788 0  -0.588076822054871 0.3899352838051667 0  1.570796326794897 2.8575 0  -1.570796326794897 0.9525 0  1.570796326794897 0.1905 0  1.570796326794897 1.7145 0  1.570796326794897 0.9525 0  -1.570796326794897 1.3335 0  1.570796326794897 2.4765 0  -1.570796326794897 2.4765 0  0.8103777117362174 0.287468585434799 0  -1.145334531235929 1.881885620422454 0  -0.8620560674467429 0.6361265362229395 0  -0.321688879263093 1.207848147265888 0  -0.7798551871678058 1.904240998338365 0  -0.4724954359209014 1.769587110195458 0  -0.667402576232105 2.495985359319255 0  0.5365063314111709 0.8945566719544227 0  0.1855702280441107 2.342745654422604 0  0.55510120733165 1.88540118775351 0  1.188295809121239 2.460939894898248 0  1.38587897409014 2.260870763688798 0  1.383978812419919 1.901097375082534 0  -0.2265735189171196 1.049795314962436 0  0.7387890113368257 1.246392780742437 0  0.5763234466275948 1.516457524623135 0  -0.203279258075353 0.4348372558382012 0  -1.179202350299698 1.523245956950107 0  -1.151844216720993 2.318990544544152 0  -1.410806081599612 0.6547540757597369 0  0.04190096621848406 2.108399609871347 0  0.5925649981629265 0.4343292987553075 0  0.2371113691258682 0.4102816185532077 0  1.334103818253725 2.657728219912091 0  0.9405077369493808 2.275181409651143 0  -0.633962040105568 2.669303984283053 0  -0.6045614816381242 1.904349918307267 0  1.159697673803787 2.079238591118184 0  -0.004643801590645341 1.347662554528907 0  0.3691400131247499 2.395423267764724 0  0.3855005143298051 2.055603978165229 0  0.01839821075864462 0.1788084577298442 0  -0.9568120219060965 2.61629404172056 0  0.1783135820912846 1.871116340262054 0  0.3649950158263953 2.745288921627024 0  -0.3142054567155264 0.5671999812317062 0  -0.4933549623779417 0.564740705097546 0  0.06092775470575962 2.685867440722903 0  -0.1801827362748675 2.337517890002858 0  -1.063355415037434 0.6386189748554 0  -1.205242865599393 0.8676070232612285 0  -0.4176020549597784 2.412196127179313 0  -0.3347051678178828 2.093252344225509 0  -1.427772711006951 0.2857500000000001 0  0.8835729338221293 0.1362887052191026 0  -0.6831011505337878 0.1389086130988801 0  -1.403875662049666 1.77648180985222 0  1.394165436236593 1.362588987767805 0  -0.5007942298153729 0.8700626692351643 0  -0.6093220848169366 0.7321530406295067 0  0.007534593095922887 1.760126887057542 0  -1.276272015520854 0.140425968067263 0  -0.7270478511000733 2.847016806985676 0  1.436331331726002 0.85725 0  -0.1770320080670663 1.927167796173981 0  0.7200726153501196 0.6345534912379586 0  -1.099983122078282 0.3577316115390257 0  0.2324759135153202 2.648405702327079 0  0.9054371869972004 1.582409569434113 0  0.5000672234640285 1.188708149930449 0  -0.340793734207542
[...]
<PointData  Vectors="phi"> 
<DataArray  type="Float64"  Name="phi"  NumberOfComponents="3" format="ascii">-1.0839624117186220e+00 3.0366935065602472e+00 -2.0290525744182490e-05  -1.0160093705928759e+00 -4.1943657509498968e-08 -9.5843457565063726e-06  1.0160095342098219e+00 -2.8449694832826575e-08 -1.1434692562671524e-05  1.0838573762377224e+00 3.0367056418855314e+00 -1.0663078913994001e-05  -6.0230754030737916e-06 1.9454840105525786e-08 1.0160099833902525e+00  1.1043284303538207e-04 2.9522361338379470e+00 5.0896205827668717e-01  -1.0450516175954814e+00 1.5156522721976058e+00 -1.7777621148529438e-05  1.0450309916389457e+00 1.5156573644063571e+00 -2.5814176252081500e-05  -4.6786764442070319e-02 1.5324243591232656e+00 9.5634792673579216e-01  7.1842696837497588e-01 6.6790250397524260e-08 7.1841671798315609e-01  7.4212404429615664e-01 2.2613434212323265e+00 7.2364728894239538e-01  -7.1842444699058261e-01 -2.3613637479579502e-07 7.1841830518505256e-01  -7.7173694371632540e-01 3.0464707555929147e+00 6.7575453602992996e-01  3.9026921558691879e-01 7.7810205493119755e-01 9.2672908079138749e-01  -1.0266238390749667e+00 7.5726655195851234e-01 -1.9668521173983384e-05  -7.7269976237319327e-01 2.0935309944641358e+00 6.9433958232703241e-01  -6.4861745429823892e-01 8.9211113427822708e-01 7.8410054590149936e-01  7.7176180368649905e-01 3.0465331015656485e+00 6.7607902093349892e-01  7.3391282482439946e-01 1.4674712712095996e+00 7.1780089729186258e-01  2.3712037373213251e-05 2.2899372135763478e+00 8.8041552902769049e-01  -1.0671970163697824e+00 2.2754799255865001e+00 -2.1567114431638893e-05  1.0266249472768678e+00 7.5726846406847881e-01 -3.0879130888800226e-05  1.0671266610845123e+00 2.2754913428999766e+00 -5.2533045428869007e-05  -8.4418887771415574e-01 1.4699426128458477e+00 6.0014915488153620e-01  8.5776320505226011e-01 8.9758832406799394e-01 5.6340632748570163e-01  -3.8901742280035884e-01 4.0842541439603208e-01 9.3356059131114055e-01  9.7979304247565557e-01 1.8972708925546604e+00 3.8996628154936563e-01  3.7270552208442620e-01 1.8875194626006284e+00 8.9420423376319247e-01  -4.9406333057826535e-01 2.5677472663050591e+00 8.0446651150090198e-01  3.8329802083002440e-01 3.0122229601719712e+00 6.2217926796962097e-01  9.3865881375549243e-01 -2.1441028101308093e-07 3.8880602875922005e-01  1.0012252062805025e+00 2.6344746012799685e+00 4.1279269277294528e-01  -1.0311092494923593e+00 3.0375356684320729e+00 3.9450541425003149e-01  -9.3865638679268659e-01 -3.4963570519063152e-07 3.8881402126124481e-01  -1.4078728515733704e-01 8.9314137429891605e-01 9.8249483096949508e-01  -9.7422451827826451e-01 2.5197462439377696e+00 4.5863514360547292e-01  -8.4966289350680946e-01 4.7273442119876363e-01 5.6486118098408533e-01  -3.4557209408639716e-01 1.9309570119666704e+00 8.9805786622985739e-01  -1.0563141374405367e+00 1.8953679917487993e+00 -2.4347274272018562e-05  -9.4617366491897437e-01 1.0261980314341372e+00 4.0942227304005852e-01  7.0703277302351120e-01 4.7616432976948914e-01 7.3237779067275977e-01  3.8881357689882157e-01 3.5829482358864987e-07 9.3866297669697163e-01  -4.7755434097123556e-01 1.3301803529262790e+00 8.7921471668584916e-01  6.4569625782209053e-02 4.5789001117077149e-01 1.0034768961529901e+00  1.9937223252414546e-01 1.1700065254924776e+00 9.6288509484091533e-01  3.9097414196792096e-01 2.5672268680138690e+00 8.0515984181870570e-01  1.0211050143296763e+00 3.7853070010590067e-01 -1.9564585714833599e-05  9.6572515675417714e-01 1.2892956416330323e+00 3.7912168987955214e-01  9.4580317291042182e-01 5.2819826817161497e-01 3.8762400089166277e-01  7.3326550656880407e-01 1.8643081774501034e+00 7.2333923159341207e-01  6.1007029038884131e-01 1.0965689125146814e+00 8.1123834336584399e-01  -9.9693432633047163e-01 2.1356724511374989e+00 3.6769459289782258e-01  -3.8880288570170263e-01 -1.4388145284003498e-08 9.3865992199376014e-01  -3.8312947693520610e-01 3.0123109121277283e+00 6.2227243397364507e-01  1.0309755674497030e+00 3.0375435093456291e+00 3.9450353957023171e-01  7.5896646314346172e-01 2.6489191026573620e+00 7.1376837271377802e-01  -9.9522205637308803e-01 1.7067846222626968e+00 3.3335623281356258e-01  -1.0956882240579956e-01 2.6359980692260900e+00 7.2329337631146984e-01  -1.0348722070654481e+00 1.1362968883707028e+00 -2.6590716777782928e-05  -1.0211059089594567e+00 3.7852985265846972e-01 -2.4982182441788909e-05  1.0348659212447064e+00 1.1362998559349560e+00 -1.0021161848723062e-05  1.0562688997539653e+00 1.8953758619106185e+00 -5.1314624954838033e-05  1.0762700044249929e+00 2.6559816636962199e+00 -2.2232628698614738e-05  -1.0763739201635780e+00 2.6559699438078845e+00 -2.2680473860993714e-05  -6.5430155099624299e-01 1.7440337138389523e+00 7.8010765961146733e-01  1.0011776547756637e+00 2.2665025415948672e+00 3.6927367255161841e-01  3.9441776186753669e-01 1.5012983505980535e+00 9.0434633784300522e-01  1.5672602112183714e-02 1.9372713114899307e+00 9.2858177236815620e-01  4.1061301934807187e-01 4.2380561128301070e-01 9.2455122262089340e-01  3.4564821915722610e-01 2.2319719722007676e+00 8.7804661029481279e-01  -3.4338660504201562e-01 2.2693390010172476e+00 8.7386152278302520e-01  -9.6897776140314351e-01 6.9639748649358757e-01 3.3407696476524196e-01  -9.9373043916375836e-01 1.3534332003830754e+00 3.0605715844132292e-01  -1.2404966276735675e-01 1.2173015202798663e+00 9.6985738136184807e-01  9.9139391702306945e-01 9.8657280629994881e-01 2.8263554900307836e-01  -7.2566553200910333e-01 1.1971413489409553e+00 7.2199617756483436e-01  8.5934020740544914e-01 2.6509419708903681e-01 5.4636122562425127e-01  1.9611234514746917e-01 2.7686881722233694e+00 6.7050144605279782e-01  -7.9374441135193996e-01 2.7018204121749170e+00 6.9016628686877413e-01  -3.5026426945696160e-01 1.6165476046065799e+00 9.1182719801788248e-01  9.2473089739409076e-01 1.5923536212916751e+00 4.8343311504091896e-01  -7.9987500466447492e-01 2.3969486736739558e+00 6.8054878424801979e-01  6.5841603795996739e-01 7.9757893487818665e-01 7.7625932916996510e-01  -9.7045378146679351e-01 3.0902587654925823e-01 3.1335039338859710e-01  -6.3653212580013752e-01 5.6888196815644110e-01 7.9272712085325647e-01  -3.9650687895630460e-01 7.2060646224894864e-01 9.2554492348828354e-01  8.2205151556092471e-01 1.1849100925553597e+00 6.1970517978006412e-01  -8.4501058742640045e-01 8.0718652821568737e-01 5.7927345314826484e-01  -6.9908232957635974e-01 2.8957903941260554e-01 7.3853835364662967e-01  -8.6871190648572350e-01 1.8302944808981705e+00 5.8119392462368169e-01  -1.4727926547598708e-01 2.5398862848991616e-01 1.0002564089967239e+00  1.9795997754904265e-01 2.0560277408760286e-01 9.9287713077047079e-01  5.9445259533918116e-01 2.3204349978973723e-01 8.2356631739876862e-01  -4.0766337482333664e-01 1.0333992296091272e+00 9.1432625900187403e-01  8.9237436404502457e-01 2.4470144852688929e+00 5.8409673892208835e-01  9.1636567555423820e-01 2.8343461558467520e+00 5.8191212187881114e-01  5.7343994432136303e-01 3.0393430629854938e+00 6.8074161002878297e-01  1.6697141314522884e-01 1.7072025181954054e+00 9.3744553959161214e-01  5.6520078057834833e-01 2.0744614967901227e+00 8.2551398469726567e-01  1.0313930790545964e+00 1.7059158174958053e+00 1.9877452480353525e-01  8.9312828308223957e-01 2.0968645717137346e+00 5.6024946475652848e-01  -1.0724877774429225e+00 3.0367896910474541e+00 1.9940749574034267e-01  -1.0474399655327102e+00 2.7521222349164476e+00 2.8438073895857624e-01  1.0627192960538228e+00 2.8246753039394017e+00 2.2032731554858948e-01  9.8289416787228512e-01 2.6346267582907046e-01 2.7008715873912365e-01  1.4110837894735312e-01 8.9655517153492759e-01 9.8232505201651743e-01  -5.5611895579311355e-01 2.8287335737699553e+00 7.3677003402801533e-01  1.0546859002390547e+00 2.4725469565909268e+00 2.0019960341042831e-01  -1.5095391325506199e-01 6.2286876856975948e-01 9.9042586378070885e-01  -1.0413274867351749e+00 2.3686866121614805e+00 2.4944345856764039e-01  5.5425549594004331e-01 1.7028458793855767e+00 8.3669267717440987e-01  1.0618711177676097e+00 2.0853811999596514e+00 -2.2973479705700044e-05  5.3497841760083031e-01 2.7847260936378482e+00 7.4818657829184354e-01  -8.4477406002494637e-01 -6.9161746282144054e-08 5.6446185509746205e-01  -5.8683071725901559e-01 2.3305121866591705e+00 8.1030827622194868e-01  1.2340140243310324e-01 2.5141902868631583e+00 7.9262541884300153e-01  -9.3689936050339950e-01 3.0410771433359982e+00 5.6890757798265246e-01  -5.5195943045524465e-01 2.0755150442682120e+00 8.3109761733395104e-01  -1.0092854362006012e+00 9.0229363000893070e-01 2.0206450802667753e-01  -8.9911525482455978e-01 1.2462360304835927e+00 5.1110772934331483e-01  -1.6832689673410792e-01 2.0994357989334373e+00 9.0907620203233730e-01  -9.5860998865360825e-01 2.7568265343292149e+00 5.1532926606178009e-01  -1.6341006277360545e-01 1.7716602528042360e+00 9.3357900229855650e-01  -3.1012675013501401e-01 2.7854382654601602e+00 6.9872083224402326e-01  5.4445420594022120e-01 2.3750111483750320e+00 8.2254644399680144e-01  -6.7166552187900230e-01 1.4276968614148151e+00 7.6787272228827308e-01  8.0504005064828554e-01 6.7197167487863740e-01 6.2917225064642501e-01  -8.5032460355332240e-01 2.3634437825029780e-01 5.5963154216434552e-01  9.9419515584803519e-01 7.3707070493910987e-01 2.5324510842733150e-01  5.4046633758857765e-01 6.0974423148916956e-01 8.5752769563851838e-01  5.6311751461571236e-01 1.3351901415140695e+00 8.3765748085179315e-01  -5.1221502271179731e-01 2.0382977523102452e-01 8.7628094630065922e-01  -2.6837971697319174e-01 2.4878824312343615e+00 8.2202243755890736e-01  -1.0235021658755574e+00 5.6786169626868033e-01 -1.5118667140448364e-05  -2.4547643847241260e-01 1.4127604764206629e+00 9.4369693400705235e-01  2.5486350488219617e-01 5.9207387558462188e-01 9.7205507557299176e-01  1.0033971288911079e+00 1.4963692445346612e+00 2.8774100776288941e-01  1.0397524959495865e+00 1.3259356447784707e+00 -1.4581900593018578e-05  -9.0088278263606136e-01 2.2299193485140263e+00 5.5706812704406661e-01  8.7182784695188231e-01 1.3916216060424507e+00 5.5959295093218997e-01  -9.9647620882819454e-01 -4.6245950830269537e-07 1.9820704865543337e-01  3.9649140804341310e-01 1.0251766966527529e+00 9.1862037915272488e-01  1.6916350888918746e-01 1.4130587823863567e+00 9.5481125532310684e-01  -1.0288992116160960e+00 1.9295918954035078e+00 2.4229296310034326e-01  2.1435638503206458e-01 2.0488408191343677e+00 9.0995987964380876e-01  1.0235035663463004e+00 5.6786292799258464e-01 -2.6587593391491825e-05  1.0344234003807087e+00 2.0719225167785691e+00 2.3786942578923531e-01  -8.2906691521668707e-01 1.0306892390762612e+00 6.0673465247606118e-01  -1.0097275056211055e+00 1.1445068095445035e+00 2.2639079065682430e-01  -1.0185022574878539e+00 1.8927025745068021e-01 -3.3522317058680853e-05  9.2609057763580860e-01 1.0951948613159554e+00 4.5521864191810624e-01  4.0842975831478773e-01 2.1138676845500565e-01 9.2807135143895259e-01  -1.0619305328886646e+00 2.0853723797094879e+00 -3.1281091233139689e-05  8.4647343979305645e-01 4.7390932073645509e-01 5.6957689767607744e-01  1.0029026228794993e+00 4.5769247365857013e-01 1.9589939091798550e-01  9.1870885538298119e-01 7.2659693441430462e-01 4.5398428032176824e-01  3.7004175172033293e-01 1.2911498203475802e+00 9.1931302195648446e-01  8.7934289768784724e-01 1.7954381434264490e+00 5.6522663745121537e-01  -1.7248417903936392e-03 1.0488327799958566e+00 9.8386446448170228e-01  1.0149379417222180e+00 1.1792186869809920e+00 2.0636534454649541e-01  -1.0046333070162130e+00 4.7333422386229257e-01 1.8797217936909916e-01  5.9207220044574044e-02 6.9233299645971402e-01 9.9671642834926821e-01  -9.4666622544575185e-01 4.9720843461742525e-01 3.8447753162972476e-01  -5.8794129809801776e-01 1.0831045323464221e+00 8.2549141116581903e-01  -9.1368074188068704e-01 2.0254165416940735e+00 5.2565167486888720e-01  -1.0805746926647595e+00 2.8463138716991945e+00 -3.2057124222210299e-05  7.5218387808413223e-01 1.0107964936170435e+00 6.9423312721995134e-01  7.5602510209109464e-01 2.8486909487318663e+00 7.0142267384094026e-01  -5.1945146999721115e-01 1.5237803920805126e+00 8.5645376061490908e-01  7.3769532081143407e-01 2.0627773832193124e+00 7.2286742374850244e-01  7.2154336526932217e-01 1.6656786458222770e+00 7.3060105188329216e-01  -1.9670085319932692e-01 2.9771658513357186e+00 5.5313149483797119e-01  -5.4282540262032474e-03 2.7853842658845402e+00 6.2824897633359555e-01  -1.0499127527179006e+00 2.1807417635027959e+00 1.7753280905936972e-01  9.9647657991753957e-01 -5.7979613351800479e-07 1.9820988423181102e-01  9.3689131911914669e-01 3.0410606573831336e+00 5.6898853775723079e-01  1.9820916546256653e-01 9.3873891673299366e-07 9.9648616173191873e-01  -1.9821708995426984e-01 4.7222395681107903e-07 9.9648043811005482e-01  5.6445631390081452e-01 1.3645760206157662e-07 8.4477661445172691e-01  1.9687079941335417e-01 2.9770557142343081e+00 5.5301797376152728e-01  8.4477664239415073e-01 -5.3677835377519848e-08 5.6446115446960099e-01  1.0723770840034861e+00 3.0367937546601094e+00 1.9941590684247251e-01  -5.7330865154746313e-01 3.0393692990964958e+00 6.8063341393851740e-01  -5.6446144188919611e-01 7.7856398059464009e-08 8.4476936907494382e-01  -6.9247026690511582e-02 2.4638128488731623e+00 8.1399755146146124e-01  1.0130142746559645e+00 2.8281726165695096e+00 4.1102632437369158e-01  5.8313115187006159e-01 2.6002414737987767e+00 7.8588175961052886e-01  7.5163978100215389e-01 2.4550456798164624e+00 7.2035324679398649e-01  9.0467889327483131e-01 2.6409325723877881e+00 5.8350111147829442e-01  3.6997896983562206e-01 1.6937620144220846e+00 9.0346678759682764e-01  -8.6295301912554756e-01 2.8748206187513938e+00 6.3590216950448031e-01  -3.3072159602795037e-01 1.8842196896664276e-01 9.5817226411644818e-01  -1.0593829830088928e+00 2.5670067771707696e+00 1.8988804836176418e-01  -9.1017150519188772e-01 1.6427712295488481e+00 5.1116480596846159e-01  -1.0239718329521219e+00 1.5382323559191518e+00 2.1068832639777529e-01  -1.0506218899772859e+00 1.7054626482898541e+00 -3.5014968575101275e-05  -7.8789394579170557e-01 1.6461183925067298e+00 6.6956044156315586e-01  -5.6501663244065914e-01 3.9073814706572585e-01 8.4324105793807547e-01  1.0804243732783119e+00 2.8463300052915783e+00 -2.0926592448803391e-05  -1.0304627811549927e+00 9.4674386790064780e-01 -1.7740543685723615e-05  1.0184974400508151e+00 1.8927011631112856e-01 -2.9417398003740662e-05  1.0505864037086485e+00 1.7054691364517940e+00 -2.1119550177293110e-05  1.0304633472636844e+00 9.4674591363937477e-01 -5.0075375073434900e-05  -1.0397659094624747e+00 1.3259317345758763e+00 -3.2439750987840944e-05  1.0719167016981765e+00 2.4656944372590455e+00 -1.6069505888077148e-05  -1.0719887409743989e+00 2.4656844713207913e+00 -1.9275016427711629e-05  7.3803102879278093e-01 2.8712903616288937e-01 7.0023084283590720e-01  -9.6594600633676420e-01 1.8745629385783493e+00 4.1982890736045858e-01  -7.7774949133350635e-01 6.3499182307042135e-01 6.6101527158101026e-01  -3.2300354950925397e-01 1.2136319150292352e+00 9.3542318827513038e-01  -7.4512835902295083e-01 1.9030041445900845e+00 7.1409461759133619e-01  -4.7233092287227102e-01 1.7744943604472081e+00 8.6917531515061197e-01  -6.6614602563491498e-01 2.4979882831258213e+00 7.6875745352362235e-01  5.2385578925669329e-01 8.9692893115293071e-01 8.6437856397444846e-01  1.8820968253100506e-01 2.3466611344831421e+00 8.6561572010544507e-01  5.5160042724291680e-01 1.8889274295717706e+00 8.3462041771167617e-01  1.0044845840650476e+00 2.4516437247520044e+00 3.8083918170461040e-01  1.0503242097348264e+00 2.2507575041011658e+00 1.8703232869367237e-01  1.0389904927329905e+00 1.8918892702373833e+00 1.8893257884344250e-01  -2.2856007604691830e-01 1.0558303020833233e+00 9.6274575304528975e-01  6.9867506184743755e-01 1.2462219604100315e+00 7.4583551829944239e-01  5.6597929478820985e-01 1.5192034067988371e+00 8.3369098824402565e-01  -2.0483080109936788e-01 4.3776970888832339e-01 9.8646400943111190e-01  -9.6849095348127734e-01 1.5166464587823243e+00 3.8823147752117637e-01  -9.8445921932939395e-01 2.3104386010371609e+00 4.1453011368683940e-01  -1.0117455624631038e+00 6.5077647147872353e-01 1.6209585084105232e-01  4.2716409932329044e-02 2.1164075066867873e+00 9.1181488973983482e-01  5.6916328370198477e-01 4.3519243685347603e-01 8.4044575276591604e-01  2.3839969016029147e-01 4.1294364864750960e-01 9.7996105533607802e-01  1.0530437686246519e+00 2.6470785810181487e+00 2.3911333458078202e-01  8.7214766254199660e-01 2.2700886740221140e+00 5.9785246430135763e-01  -6.3302051155843364e-01 2.6716969812352724e+00 7.6346179327982233e-01  -5.9713960583993742e-01 1.9069001839968343e+00 8.1242149108071915e-01  9.7863197362763188e-01 2.0712263928145420e+00 4.0665744666096154e-01  -4.7155244491143824e-03 1.3556512818209858e+00 9.6785466437518386e-01  3.7366173847915585e-01 2.4006322663119644e+00 8.4928746616236883e-01  3.9019506017094702e-01 2.0621936376809464e+00 8.8216751413362315e-01  1.8656428180202425e-02 1.8018060656451398e-01 1.0122781760591100e+00  -8.9965891911900053e-01 2.6102693914378583e+00 5.8742157109741577e-01  1.8110814976841610e-01 1.8794580066318098e+00 9.2493491181429277e-01  3.6141339683532220e-01 2.7320348536029577e+00 7.3776875489629168e-01  -3.1417671836150046e-01 5.7038761805231508e-01 9.5668673944770011e-01  -4.8281957206202036e-01 5.6665926902297503e-01 8.8947965076223501e-01  6.1513694103115905e-02 2.6500934427132661e+00 7.0904349820424373e-01  -1.8274468596748872e-01 2.3415565037602448e+00 8.6693561340378433e-01  -8.9571837654732267e-01 6.3606598794148528e-01 4.9418522713182056e-01  -9.6142058018691767e-01 8.6329903350179782e-01 3.6367094901427865e-01  -4.2236624074997275e-01 2.4174548613727924e+00 8.4174928341416000e-01  -3.3973970775961265e-01 2.1004027119522415e+00 8.8981867535591974e-01  -1.0094575137187043e+00 2.8394704436854989e-01 1.4508779110415332e-01  7.8615473815035708e-01 1.3599998710433220e-01 6.4466727145425906e-01  -6.4168268250153349e-01 1.3899345417189141e-01 7.8777223299493182e-01  -1.0386734284189600e+00 1.7675640007482343e+00 1.6901270576554947e-01  1.0249010137541097e+00 1.3552248299621632e+00 1.7874164252408248e-01  -4.9145322973024075e-01 8.7279499721817266e-01 8.8140864436789379e-01  -5.8588154818143967e-01 7.3340228035647759e-01 8.2862186004855265e-01  7.6724299059850931e-03 1.7689198493512808e+00 9.4093088763101629e-01  -9.7372799797248144e-01 1.3963674718380856e-01 2.9515434059201728e-01  -7.1946295317037212e-01 2.8471947052781652e+00 7.1454935098591521e-01  1.0192974709159710e+00 8.5212992135457688e-01 1.3640839853971881e-01  -1.7993624239995493e-01 1.9355027566602905e+00 9.2126064261437501e-01  6.7491258380824182e-01 6.3463477627128417e-01 7.6204542190319557e-01  -9.0936194536452752e-01 3.5614212044615778e-01 4.6143873746922076e-01  2.3241814900672883e-01 2.6304547651461783e+00 7.5188173828078586e-01  8.2659629602685147e-01 1.5791686240923495e+00 6.2529070782239948e-01  4.9319983860017674e-01 1.1921900704306370e+00 8.7521431110623471e-01  -3.3962901404987550e-01 2.6350017930197844e+00 7.7345544816905387e-01  8.3151092726784070e-01 1.9615741706868286e+00 6.3170426645914068e-01  9.5658079573023047e-01 1.7422940534436278e+00 4.3064577300561663e-01  -7.3780723354946276e-01 4.5662850007473887e-01 7.0201026722425885e-01  2.1194726973733108e-01 7.4946884993107910e-01 9.7673296828070677e-01  -6.6232879643404141e-01 2.1876314629129712e+00 7.7561066883800878e-01  -6.0079021637424812e-01 1.2440022571422984e+00 8.1642496279224475e-01  -7.1567194286845759e-01 1.0330928636335679e+00 7.2932212761028714e-01  -7.7591924481974861e-01 1.3436104354816449e+00 6.7557976326013436e-01  9.3599372207356502e-01 9.3866887002148192e-01 4.2735002741287170e-01  -9.6353528611703365e-01 1.1815878919480789e+00 3.7746667847981052e-01  8.9702629255831201e-01 1.2533436895589006e-01 4.7915775536721528e-01  9.1422062532839454e-01 3.8467888007113649e-01 4.5254709352968142e-01  -6.4983241848492745e-01 1.5847611978675931e+00 7.8330648202386222e-01  9.4809038475091323e-01 1.4458271097697704e+00 4.2947234940060197e-01  -9.1913311843193268e-01 2.39046340985452