<?xml version="1.0"?>
<VTKFile type="UnstructuredGrid"  version="0.1"  >
<UnstructuredGrid>
<Piece  NumberOfPoints="758" NumberOfCells="1386">
<Points>
<DataArray  type="Float64"  NumberOfComponents="3"  format="ascii">-1.570796326794897 3.048 0  -1.570796326794897 0 0  1.570796326794897 0 0  1.570796326794897 3.048 0  0 0 0  0 3.048 0  -1.570796326794897 1.524 0  1.570796326794897 1.524 0  -0.04609926118424437 1.524 0  0.7853981633974483 0 0  0.7623485328053261 2.262242601661362 0  -0.7853981633974483 0 0  -0.7853981633974483 3.048 0  0.392699081698724 0.7745759241961347 0  -1.570796326794897 0.762 0  -0.8084477939895706 2.0955 0  -0.68277245543452 0.8915343570675713 0  0.7853981633974483 3.048 0  0.778743707341909 1.468410948960538 0  2.780093748954961e-16 2.285302774973185 0  -1.570796326794897 2.286 0  1.570796326794897 0.762 0  1.570796326794897 2.286 0  -0.9375370967763674 1.47348297960658 0  0.9831575747762593 0.9003629142671278 0  -0.3926990816987241 0.4064697549061488 0  1.177419588818055 1.905 0  0.3692901340097942 1.880893989147954 0  -0.4920225169641509 2.564371687128368 0  0.3926990816987241 3.048 0  1.178097245096172 0 0  1.155705348811136 2.643920532523289 0  -1.178097245096172 3.048 0  -1.178097245096172 0 0  -0.1391296372266528 0.8873724190154949 0  -1.10527745318919 2.528282743051346 0  -0.9817477042468103 0.4742759268549471 0  -0.3416666987802651 1.923944646262223 0  -1.570796326794897 1.905 0  -1.156555306160469 1.030861936336814 0  0.7648449098493205 0.4764142032227 0  0.3926990816987241 0 0  -0.4820376416180818 1.326151321396512 0  0.06374421723344185 0.4545169930886408 0  0.1972735722393064 1.163324878565267 0  0.3900417218314142 2.566922767651637 0  1.570796326794897 0.381 0  1.188877612935585 1.295195418509834 0  1.179914028402171 0.5308585702661928 0  0.7660075594126428 1.865233039449035 0  0.6330293131838399 1.095171663968746 0  -1.201232463242587 2.144287146570887 0  -0.3926990816987241 0 0  -0.3926990816987241 3.048 0  1.178097245096172 3.048 0  0.7684409382397209 2.649499271873753 0  -1.236954997304436 1.7145 0  -0.1088573452899617 2.666651387486592 0  -1.570796326794897 1.143 0  -1.570796326794897 0.381 0  1.570796326794897 1.143 0  1.570796326794897 1.905 0  1.570796326794897 2.667 0  -1.570796326794897 2.667 0  -0.6730839067294777 1.743003792473746 0  1.199831389396789 2.275437921225198 0  0.3936837537618041 1.495643752599615 0  0.01539369169800942 1.928544709491661 0  0.4156551272669651 0.4219033286010089 0  0.3401546043708642 2.225103550856524 0  -0.3379897306391274 2.262671266279809 0  -1.23624174049596 0.7000907110925838 0  -1.265224057170889 1.360131453617764 0  -0.1224339018241312 1.210043725539656 0  1.289286200625578 0.9918698881707442 0  -0.7751142346211329 1.197848666814478 0  1.003546186550495 0.2660297686099683 0  0.1963495408493621 2.808538634159524 0  -0.8079023568959116 2.703551618159924 0  -0.3480226984353056 1.610059855391589 0  1.075147893506229 1.598068412087719 0  -0.8290627893979112 2.399544545867518 0  0.6965048925255637 0.7972100472372819 0  -1.257765094876752 0.3107645483825858 0  -0.6724835324263325 0.5684215760013651 0  -0.3995059642389676 0.7173610149075536 0  0.9136951972244611 1.187564504803626 0  -0.964259350608907 0.8095514380783081 0  -0.7565990314517038 0.2897049735129544 0  -0.9603859887840651 1.834914433810327 0  -0.1457055965762301 0.2521630699436873 0  0.1963495408493621 0.2041911848053476 0  0.6241974196550791 0.231695999252114 0  -0.4098815011312292 1.029160072548571 0  0.9592800715482012 2.452820690856482 0  0.9648684169153161 2.840751931000357 0  0.5890486225480862 3.048 0  0.164631037784102 1.698913854044779 0  0.5664480837073581 2.070920238540226 0  1.374107957806476 1.7145 0  0.9861079629544779 2.102471438422718 0  -1.374446785945534 3.048 0  -1.288827800789186 2.762781313597598 0  1.353232957571468 2.835634774483438 0  1.302158670506274 0.2650078124691045 0  0.1394669809465775 0.8907702620243092 0  -0.5631487221059602 2.830992231257464 0  1.372837635547072 2.483038902756259 0  -0.1493395228831287 0.618617259260858 0  -1.32327048447753 2.378769394323546 0  0.56080204725298 1.699622905297025 0  1.570796326794897 2.0955 0  0.5403456747786348 2.786446773498672 0  -0.9817477042468103 0 0  -0.5847039960246873 2.326882432521036 0  0.1225428891326576 2.526494255738436 0  -0.9817477042468103 3.048 0  -0.5522901559753841 2.071668786267058 0  -1.370864794258017 0.9075071715671403 0  -1.043891045637083 1.250611220450313 0  -0.1652643923634778 2.09141301924679 0  -1.044446740946883 2.764982067459552 0  -0.1610370079820225 1.763280243096074 0  -0.3136912237752232 2.810498886211121 0  0.5400974078002052 2.370472734822523 0  -0.7009161718414544 1.427243880175582 0  0.902907438200502 0.6735032943420574 0  -0.9879196222361604 0.2371379634274736 0  1.319268546233604 0.7412771512308228 0  0.5578373583610097 0.608241627784878 0  0.5756483102040615 1.332636919938113 0  -0.5281701577409 0.2032348774530744 0  -0.266729509930448 2.489223923247521 0  -1.570796326794897 0.5715 0  -0.2430656531629531 1.405631921096758 0  0.253622337931223 0.5884397663452474 0  1.284044721043478 1.50372037617638 0  1.570796326794897 1.3335 0  -0.9904333867980613 2.235882060371517 0  0.9871146764618406 1.395690276854986 0  -1.374446785945534 0 0  0.3981951765262902 1.020833864419675 0  0.1670583512016766 1.405384478716078 0  -1.330327693484763 1.938638984813805 0  0.2106653067452682 2.040805097078886 0  1.570796326794897 0.5715 0  1.334822181490566 2.081373939821734 0  -0.9303227889097604 1.033236710715967 0  -1.34639228476592 1.150776798768373 0  -1.570796326794897 0.1905 0  1.106697207481837 1.099709897393925 0  0.4137866939027022 0.2104288000383385 0  -1.570796326794897 2.0955 0  0.9761377489246634 0.4754251272674608 0  1.377108465632662 0.4605024587280874 0  1.108114944719677 0.7297638044096917 0  0.3695908229138113 1.285681859811955 0  0.9799112840676307 1.800306505551499 0  -0.001696842075803034 1.042028929293442 0  1.366537356420357 1.185723700290463 0  -1.385029840108318 0.47625 0  0.05842649915411911 0.6874537157920781 0  -1.183268988745763 0.4997334438341218 0  -0.6073502281622543 1.081347079085406 0  -1.026941765261019 2.031536576622642 0  -1.570796326794897 2.8575 0  0.8159726599830506 1.011928543199529 0  0.7652782693277244 2.849245002237192 0  -0.5252326280373281 1.520125074885265 0  0.7648326174724897 2.063743853392348 0  0.757099741434616 1.666331708950521 0  -0.1963495408493621 3.048 0  -0.005410422648647092 2.843333256403111 0  -1.395368347654653 2.19075 0  1.374446785945534 0 0  0.9817477042468103 3.048 0  0.1963495408493621 0 0  -0.1963495408493621 0 0  0.5890486225480862 0 0  0.1963495408493621 3.048 0  0.9817477042468103 0 0  1.374446785945534 3.048 0  -0.5890486225480862 3.048 0  -0.5890486225480862 0 0  -0.06865319188571758 2.471928549109083 0  1.159049337209348 2.838090892449816 0  0.5817075150535711 2.596909954318943 0  0.7656515661107315 2.455866896253367 0  0.9620790410056582 2.647119292933887 0  0.3676829480103987 1.68739481709134 0  -0.8886101495223063 2.878912500124773 0  -0.3317793704126089 0.1873756770788371 0  -1.383208664444332 2.577695923010364 0  -1.043597917648523 1.648216005744782 0  -1.362178343413552 1.546177620526679 0  -1.570796326794897 1.7145 0  -0.8462722504471433 1.648434957877788 0  -0.588076822054871 0.3899352838051667 0  1.570796326794897 2.8575 0  -1.570796326794897 0.9525 0  1.570796326794897 0.1905 0  1.570796326794897 1.7145 0  1.570796326794897 0.9525 0  -1.570796326794897 1.3335 0  1.570796326794897 2.4765 0  -1.570796326794897 2.4765 0  0.8103777117362174 0.287468585434799 0  -1.145334531235929 1.881885620422454 0  -0.8620560674467429 0.6361265362229395 0  -0.321688879263093 1.207848147265888 0  -0.7798551871678058 1.904240998338365 0  -0.4724954359209014 1.769587110195458 0  -0.667402576232105 2.495985359319255 0  0.5365063314111709 0.8945566719544227 0  0.1855702280441107 2.342745654422604 0  0.55510120733165 1.88540118775351 0  1.188295809121239 2.460939894898248 0  1.38587897409014 2.260870763688798 0  1.383978812419919 1.901097375082534 0  -0.2265735189171196 1.049795314962436 0  0.7387890113368257 1.246392780742437 0  0.5763234466275948 1.516457524623135 0  -0.203279258075353 0.4348372558382012 0  -1.179202350299698 1.523245956950107 0  -1.151844216720993 2.318990544544152 0  -1.410806081599612 0.6547540757597369 0  0.04190096621848406 2.108399609871347 0  0.5925649981629265 0.4343292987553075 0  0.2371113691258682 0.4102816185532077 0  1.334103818253725 2.657728219912091 0  0.9405077369493808 2.275181409651143 0  -0.633962040105568 2.669303984283053 0  -0.6045614816381242 1.904349918307267 0  1.159697673803787 2.079238591118184 0  -0.004643801590645341 1.347662554528907 0  0.3691400131247499 2.395423267764724 0  0.3855005143298051 2.055603978165229 0  0.01839821075864462 0.1788084577298442 0  -0.9568120219060965 2.61629404172056 0  0.1783135820912846 1.871116340262054 0  0.3649950158263953 2.745288921627024 0  -0.3142054567155264 0.5671999812317062 0  -0.4933549623779417 0.564740705097546 0  0.06092775470575962 2.685867440722903 0  -0.1801827362748675 2.337517890002858 0  -1.063355415037434 0.6386189748554 0  -1.205242865599393 0.8676070232612285 0  -0.4176020549597784 2.412196127179313 0  -0.3347051678178828 2.093252344225509 0  -1.427772711006951 0.2857500000000001 0  0.8835729338221293 0.1362887052191026 0  -0.6831011505337878 0.1389086130988801 0  -1.403875662049666 1.77648180985222 0  1.394165436236593 1.362588987767805 0  -0.5007942298153729 0.8700626692351643 0  -0.6093220848169366 0.7321530406295067 0  0.007534593095922887 1.760126887057542 0  -1.276272015520854 0.140425968067263 0  -0.7270478511000733 2.847016806985676 0  1.436331331726002 0.85725 0  -0.1770320080670663 1.927167796173981 0  0.7200726153501196 0.6345534912379586 0  -1.099983122078282 0.3577316115390257 0  0.2324759135153202 2.648405702327079 0  0.9054371869972004 1.582409569434113 0  0.5000672234640285 1.188708149930449 0  -0.340793734207542
[...]
<PointData  Vectors="phi"> 
<DataArray  type="Float64"  Name="phi"  NumberOfComponents="3" format="ascii">-1.2071598718019618e+00 3.0343495002478598e+00 5.4523610157167766e-04  -1.0160103516577992e+00 1.1093434767271479e-07 -9.5832355871220147e-06  1.0160104603265419e+00 9.0297535296153171e-08 -1.1409672366301358e-05  1.2073521133315150e+00 3.0343065794243760e+00 4.5284821327195316e-04  -6.5994179732244245e-06 1.3115384744485229e-06 1.0160223194868874e+00  -1.1270843529402126e-03 2.4861705081734136e+00 -5.9311392888799186e-01  -1.0806925611502300e+00 1.5104757603968377e+00 -1.6944954144789246e-05  1.0812828133322130e+00 1.5103733621650448e+00 -2.6510968433734605e-05  -4.7098025995937952e-02 1.3026221036083259e+00 3.7255589064539008e-01  7.1842688296629442e-01 -2.2107726691205832e-07 7.1841640044535504e-01  5.9544976012462036e-01 2.1595464503524999e+00 2.7716298063929462e-01  -7.1842405111713181e-01 2.9417817835559715e-07 7.1841827239902922e-01  -5.8599570882716034e-01 2.8128740280320335e+00 -1.5847066821369568e-01  3.9171280946538456e-01 7.7519742397244107e-01 8.9784531597433648e-01  -1.0225173970595272e+00 7.5629830840481360e-01 -2.2047339780689500e-05  -6.5035797540521456e-01 2.0347520150169895e+00 3.8547397249429016e-01  -6.6450164087480301e-01 8.9491482999760230e-01 7.8779752975907846e-01  5.8527503945707127e-01 2.8121198223995334e+00 -1.6053615346452790e-01  7.0598550211030209e-01 1.4631958364897157e+00 6.3734177819847637e-01  -8.0885276390793874e-04 1.9032497922581078e+00 -9.8238185461598862e-02  -1.1803635459315336e+00 2.2675009260122621e+00 5.0517259863241024e-05  1.0225719758876672e+00 7.5627167597340528e-01 -3.0569596196186182e-05  1.1811137700662553e+00 2.2673360274381209e+00 -7.6918045339078247e-05  -8.5451543873471569e-01 1.4741258280231135e+00 5.7941941453048451e-01  8.7579883200414921e-01 8.9830196357923064e-01 5.7071602314709047e-01  -3.9406405111923642e-01 4.0864841360734860e-01 9.3495283503313653e-01  1.0133778965599440e+00 1.8976602746733346e+00 3.7109303935307797e-01  3.2965126866849659e-01 1.6771852898710897e+00 2.7147392427020539e-01  -4.0397315531941480e-01 2.2837107100161651e+00 -5.9357600443903778e-02  3.2719831666081595e-01 2.6281502256545863e+00 -4.0671675288859294e-01  9.3865785858724371e-01 -4.1571174894280378e-07 3.8880539277164816e-01  9.0707834946821642e-01 2.6089862953380436e+00 2.2442226350903530e-01  -8.7786912016651686e-01 2.9770399258157765e+00 6.2765578243089523e-02  -9.3865743543462221e-01 -1.3572794837973597e-07 3.8881448883043163e-01  -1.3848661843330676e-01 8.3327430811807701e-01 8.0423844712962089e-01  -8.7461607689964849e-01 2.4940137971046159e+00 2.6438049448342393e-01  -8.5483315911293600e-01 4.7267486601415992e-01 5.6775096664031610e-01  -3.0984547633900544e-01 1.7000615385108997e+00 2.3110219557622749e-01  -1.1352688854590758e+00 1.8873078158729277e+00 -2.6756229561602416e-05  -9.6216054714873411e-01 1.0256909182368392e+00 4.1360060498145451e-01  7.1510840938025400e-01 4.7655768362605622e-01 7.3744207760334268e-01  3.8881420655987475e-01 1.3296542707802106e-06 9.3866836839823908e-01  -4.3696559090852655e-01 1.2737604754223253e+00 6.5273475472745734e-01  6.5245689098585302e-02 4.5626142320880941e-01 9.9206497767675628e-01  1.9284188044249267e-01 1.0515175515421256e+00 6.3562641577539902e-01  3.3591290803640028e-01 2.2378125255177501e+00 -1.2534805864531479e-01  1.0194689177633176e+00 3.7820047956975106e-01 -1.9530906260080690e-05  9.9552446606908673e-01 1.2882749148504020e+00 3.8294110506160017e-01  9.4794109497806878e-01 5.2782389161872445e-01 3.8894164259695535e-01  6.3888320207056759e-01 1.8214746819186276e+00 4.8019585388601116e-01  6.0577744876010442e-01 1.0959402960661981e+00 7.7155744921560054e-01  -1.0169019130199315e+00 2.1346017147627241e+00 3.3032333958772481e-01  -3.8880220563085927e-01 -2.8058518665884097e-07 9.3865929278815208e-01  -3.2881134377590315e-01 2.6287153623237036e+00 -4.0540163933328860e-01  8.7738728393956888e-01 2.9763604363181284e+00 6.0419809902556687e-02  5.7995032338585661e-01 2.4818785893442388e+00 6.2855529503450483e-02  -1.0447649041063318e+00 1.7050689478939129e+00 3.3117126281247228e-01  -1.0929454544333964e-01 2.2159342262914810e+00 -3.1766729265590571e-01  -1.0373696373433097e+00 1.1341379531224194e+00 -2.2998596925040348e-05  -1.0194723787532287e+00 3.7821314551870566e-01 -2.4634898690690270e-05  1.0375986676134050e+00 1.1340879299152913e+00 -1.3237282029663445e-05  1.1359961913330070e+00 1.8871624735589443e+00 -4.9885858165021420e-05  1.2054952209852907e+00 2.6507522403033525e+00 -8.0392444052528972e-05  -1.2045787989532970e+00 2.6508906287988903e+00 3.9964863098104548e-05  -5.6874068437565950e-01 1.6880511636601307e+00 5.0987174491434994e-01  1.0025094237327852e+00 2.2634671391864449e+00 3.1137670279381430e-01  3.5512021357707513e-01 1.3795885881547616e+00 5.1483452379590777e-01  1.4927527030343694e-02 1.6201138299350974e+00 1.1979662123653730e-01  4.1621296159008553e-01 4.2411630337521000e-01 9.2658045161538860e-01  3.0565140241647371e-01 1.9400357714579990e+00 4.8420365927245669e-02  -3.0502152190020343e-01 1.9695793695698272e+00 2.5611924448318748e-02  -9.7118703345488877e-01 6.9582182329273690e-01 3.3536032808132815e-01  -1.0241098820664898e+00 1.3512745425405626e+00 3.0847972358086623e-01  -1.2263688639284770e-01 1.0698181436528060e+00 5.8498490451618634e-01  9.9798348526327618e-01 9.8539317460102049e-01 2.8407873872049261e-01  -7.3288560328820052e-01 1.2007913314019483e+00 7.0438917905003995e-01  8.6152915361379445e-01 2.6494662205967018e-01 5.4761772090901084e-01  1.8428378412100521e-01 2.3540990561849906e+00 -3.7192433755189552e-01  -6.0638471613690825e-01 2.5441190982715582e+00 5.6908718802827114e-02  -3.1774629327576925e-01 1.4527872636871328e+00 4.2384226355934507e-01  9.5319105829686890e-01 1.5949791553536996e+00 4.7379444206210397e-01  -6.3834215079150847e-01 2.3010548101590902e+00 2.3815764505742576e-01  6.7512142736966207e-01 7.9968493476071123e-01 7.8433353196227118e-01  -9.7073205772710380e-01 3.0877990051492565e-01 3.1376354739547146e-01  -6.4757483042003761e-01 5.6972103194862145e-01 7.9985630792404572e-01  -4.0159869878345406e-01 7.1996138139740429e-01 9.1205850159071666e-01  8.4615440249997464e-01 1.1883306131529141e+00 6.2245135528395112e-01  -8.5983004398591933e-01 8.0774723732794274e-01 5.8606577372661794e-01  -7.0319923001967422e-01 2.8963637359512634e-01 7.4112859427352229e-01  -8.3509514873386603e-01 1.8273736279814863e+00 4.9691697247742539e-01  -1.4803672951134231e-01 2.5383966211035214e-01 9.9531149669744534e-01  1.9878063755955713e-01 2.0560860716271456e-01 9.8968781952866014e-01  5.9775199072371765e-01 2.3214507916573882e-01 8.2557812276501941e-01  -3.9088047096508682e-01 1.0056357425595679e+00 7.8904826933308403e-01  7.4454900500932064e-01 2.3905751455411588e+00 2.6338556859678386e-01  7.1717663876857607e-01 2.7218901673599252e+00 6.4209756210507424e-02  4.5774834010645554e-01 2.7195782379553792e+00 -2.8449711394577398e-01  1.6136441265549462e-01 1.4601012130904065e+00 2.8873759524253023e-01  4.6297647287448568e-01 1.9182494992693837e+00 2.7499762275473644e-01  1.0890472854715201e+00 1.7006008672437145e+00 1.9892260346433702e-01  8.2001770461047430e-01 2.0819542980432977e+00 4.1147677531128524e-01  -1.0663453815726709e+00 3.0248509726556096e+00 1.1416423625711847e-01  -1.0230497487886245e+00 2.7402185316388992e+00 1.8618376632985950e-01  1.0754639949425817e+00 2.8162230862347815e+00 1.5547124117512187e-01  9.8287619761008338e-01 2.6324950105702460e-01 2.7034107158825721e-01  1.3841127470073372e-01 8.3566255988474036e-01 8.0163291304096618e-01  -4.4279570630547166e-01 2.5340800232432854e+00 -1.6981434349467533e-01  1.1251152854863655e+00 2.4684257525244782e+00 1.8266781381600192e-01  -1.5173296493363195e-01 6.1743342950241753e-01 9.5876920716814906e-01  -1.0950126155084252e+00 2.3651914268334262e+00 2.2606359667474926e-01  4.7739949610765564e-01 1.6114152619937148e+00 4.8232549133796404e-01  1.1606898498851628e+00 2.0768129142672542e+00 -2.1774918600453148e-05  4.2799229728918942e-01 2.4866376194766588e+00 -1.5966484893656532e-01  -8.4477547327164160e-01 8.0777902337935466e-08 5.6446288031785818e-01  -4.6789943388838029e-01 2.1351248306662844e+00 1.3872780543722710e-01  1.2074739717959260e-01 2.1076384536908650e+00 -2.2858979130710311e-01  -7.2128530018447545e-01 2.9013351071772275e+00 -3.9295285174248670e-02  -4.5389096502971760e-01 1.9128270040621482e+00 2.6734388344482407e-01  -1.0095171479828078e+00 9.0113258033517363e-01 2.0250656017776250e-01  -9.2896788598652003e-01 1.2477470356788396e+00 5.1638589731892348e-01  -1.6294104140395693e-01 1.7716254832241420e+00 4.9111081898946120e-02  -7.8823929716735153e-01 2.6875715084403606e+00 1.4409004646527249e-01  -1.5909022779991089e-01 1.5100687718279460e+00 2.4822403111046243e-01  -2.7685559924234515e-01 2.4027320452714651e+00 -3.1111782834896196e-01  4.3751232508263627e-01 2.1489778535327844e+00 8.3703568823911917e-02  -6.3395136688681020e-01 1.4151465548216509e+00 6.5665460049929303e-01  8.1672312854296769e-01 6.7248093694638345e-01 6.3539601479075913e-01  -8.5226584939073902e-01 2.3621296020948179e-01 5.6074489279257678e-01  9.9432365002064349e-01 7.3628185929011658e-01 2.5389379928662031e-01  5.5180625071667444e-01 6.1082684269208043e-01 8.6416191557947220e-01  5.2202131005230989e-01 1.3054169293524842e+00 6.7842530481916496e-01  -5.1486344807986939e-01 2.0393408686470868e-01 8.7765818131366624e-01  -2.4862388684094194e-01 2.1228900785646387e+00 -1.4758108423695543e-01  -1.0204886140341938e+00 5.6726376169263770e-01 -1.5244632546719178e-05  -2.3327463326568038e-01 1.2530431987153101e+00 5.0014930014390913e-01  2.5811180694369684e-01 5.9035527671296939e-01 9.5884068714576087e-01  1.0443179734486361e+00 1.4934263998231534e+00 2.8933898332763935e-01  1.0562293923061035e+00 1.3224372354825951e+00 -1.5611208109882046e-05  -8.0436919114659011e-01 2.2055107147212758e+00 3.6502247649493913e-01  8.9645347405548403e-01 1.3952856467171766e+00 5.5512047764721306e-01  -9.9647512779995417e-01 -6.0203338234219770e-07 1.9820665612260804e-01  3.7982390399692673e-01 9.9604709893485199e-01 7.9002517916750237e-01  1.6405719468273244e-01 1.2305845376397786e+00 4.7242931483824491e-01  -1.0959180077368245e+00 1.9253427607442088e+00 2.3896148382149365e-01  2.0241100130333692e-01 1.7442841609585862e+00 9.6339832423437050e-02  1.0205082699519323e+00 5.6724295113967238e-01 -2.7515745795512857e-05  1.1049407266770495e+00 2.0677962800282730e+00 2.3115238635891369e-01  -8.5283734576152703e-01 1.0326121180296139e+00 6.1483839465510171e-01  -1.0202518003354748e+00 1.1426545767346321e+00 2.2740991331234389e-01  -1.0180289609566155e+00 1.8914773189508660e-01 -3.3371473951867223e-05  9.4856094985275496e-01 1.0951658049372714e+00 4.6085804762474547e-01  4.1069086044593350e-01 2.1151929480015791e-01 9.2848629246984493e-01  -1.1597564032387444e+00 2.0769552028187119e+00 -2.9549640252584214e-05  8.5182447275392570e-01 4.7385980632027919e-01 5.7256227334046628e-01  1.0017722557138011e+00 4.5726371856351083e-01 1.9611391794333680e-01  9.2593963382454825e-01 7.2634705705895475e-01 4.5716463998212320e-01  3.4175694141549434e-01 1.2026762838412106e+00 6.2794829082239023e-01  8.5813474053492367e-01 1.7951161789590562e+00 4.9845444268271699e-01  -2.0043000804202049e-03 9.3118968281955539e-01 6.8161598720313332e-01  1.0266995296160573e+00 1.1770853557062093e+00 2.0721964438528728e-01  -1.0033408270931985e+00 4.7290044561171413e-01 1.8817028748130601e-01  5.8698209491227428e-02 6.7581812964316934e-01 9.2677942217721199e-01  -9.4846867392907364e-01 4.9685861518064856e-01 3.8565794631532047e-01  -5.8184613786026451e-01 1.0811441693697119e+00 7.8058159711130337e-01  -8.7192706182881197e-01 2.0199504376252282e+00 4.2799985173239324e-01  -1.2080304621649296e+00 2.8429733506809112e+00 1.5798153834560520e-04  7.7308497655073061e-01 1.0139881053032260e+00 7.0003154988531657e-01  5.7328762964515045e-01 2.6428391733676668e+00 -5.5405451127380483e-02  -4.6079673705483659e-01 1.4496146636239793e+00 5.6521305572185387e-01  6.1503492075403543e-01 1.9927374370848465e+00 3.8293757952501589e-01  6.5672529658023782e-01 1.6425982212778354e+00 5.6567002420625534e-01  -1.8332462898259688e-01 2.5437721397143012e+00 -5.1758907893627737e-01  -6.5579146220013044e-03 2.3417092802674957e+00 -4.4358846971600607e-01  -1.1356050043714920e+00 2.1752533900584328e+00 1.7332774012507404e-01  9.9647619893980566e-01 -5.7121992438569793e-07 1.9820949246932074e-01  7.2079696408485583e-01 2.9005822401447467e+00 -4.1676064925752897e-02  1.9820856399983225e-01 1.1119499801534804e-06 9.9649238733698731e-01  -1.9821632692634963e-01 -1.4561872586527715e-07 9.9648306339362913e-01  5.6445621842946703e-01 2.3032845616230460e-07 8.4477672917395452e-01  1.8121459322043373e-01 2.5434278041761478e+00 -5.1845975209603279e-01  8.4477855675702007e-01 -2.1117713618159767e-07 5.6446225131134520e-01  1.0656335546802318e+00 3.0247820028876609e+00 1.1267514102357869e-01  -4.5891705696244084e-01 2.7202159930535168e+00 -2.8283168688742188e-01  -5.6446371210583057e-01 -4.9242971872932084e-07 8.4477252801200287e-01  -7.0099514708019103e-02 2.0553246774705034e+00 -2.0668771058825525e-01  8.8393072413195695e-01 2.7847952535847682e+00 1.4704197042022016e-01  4.5878771981815397e-01 2.3523870488809644e+00 -2.2585587717320710e-02  5.8585497234881401e-01 2.3217263119835514e+00 1.7176393383237651e-01  7.2751105349608736e-01 2.5584096801019514e+00 1.6733347989358094e-01  3.3087501221262411e-01 1.5222045640248489e+00 3.8688785588326052e-01  -6.5912977859832500e-01 2.7224673929030851e+00 2.8109096344179022e-03  -3.3226037263315938e-01 1.8851593054193910e-01 9.5753722624879267e-01  -1.1277622203835047e+00 2.5628981232282433e+00 1.7001265196459023e-01  -9.2840352925727621e-01 1.6459926395232380e+00 4.9175187811156107e-01  -1.0661565375164921e+00 1.5339984775569013e+00 2.1159235518434763e-01  -1.1081390881935416e+00 1.6985847798295592e+00 -2.6482157232098653e-05  -7.4879090089625322e-01 1.6401621688460262e+00 5.7323421566989852e-01  -5.7140255620570346e-01 3.9111300347751982e-01 8.4732691669825699e-01  1.2089527376487148e+00 2.8428567636376330e+00 -3.5831673352652579e-07  -1.0270816551622148e+00 9.4530252361649370e-01 -1.7174772674165798e-05  1.0180212670708975e+00 1.8914178899746412e-01 -2.9277350825275519e-05  1.1088782313481189e+00 1.6984521322768014e+00 -1.6444084967417878e-05  1.0271820167878021e+00 9.4526736836927461e-01 -4.7778818815376927e-05  -1.0558113495460291e+00 1.3225099402344169e+00 -2.9314305668147888e-05  1.1961668542241304e+00 2.4587926996068794e+00 -3.6392765060865293e-05  -1.1952856811200474e+00 2.4589333643870321e+00 6.2912826419264100e-05  7.4187715226034234e-01 2.8713958607939194e-01 7.0259806501116739e-01  -9.9163090805814691e-01 1.8757376136989745e+00 3.9689888380873367e-01  -7.8896200570266428e-01 6.3554767541386725e-01 6.6733203295892884e-01  -3.0349556707296665e-01 1.1246389916250135e+00 6.5501942776374511e-01  -6.4738273809560465e-01 1.8597877656629247e+00 4.6737960663977723e-01  -4.0749616572227354e-01 1.6326527625593279e+00 3.9658308960103472e-01  -5.1695238393434062e-01 2.3112979200192605e+00 9.2018353170721393e-02  5.2770535416413944e-01 8.9724045452164036e-01 8.4363172042298318e-01  1.7955624932196443e-01 1.9774687923655978e+00 -9.6395969554903829e-02  4.6257520002843772e-01 1.7619635313491973e+00 3.7506778220808967e-01  9.6733800378223278e-01 2.4420739787968699e+00 2.7753802256492716e-01  1.1344458564135211e+00 2.2456718998259295e+00 1.8035195478936528e-01  1.1112281233281245e+00 1.8860065813742020e+00 1.8789096991781162e-01  -2.2109985823210801e-01 9.7303927705003490e-01 7.1852512139692526e-01  6.9375469000455048e-01 1.2476489557001633e+00 7.0715876741585326e-01  5.0465725907519787e-01 1.4635975637454244e+00 5.8733428549548250e-01  -2.0733623293308434e-01 4.3707115531446422e-01 9.8069870579704854e-01  -1.0090625411042855e+00 1.5161337591155903e+00 3.8928417426133188e-01  -9.5252059972566028e-01 2.3036550921520953e+00 3.2241092723996634e-01  -1.0095183936593741e+00 6.5006488861989831e-01 1.6226569476568065e-01  4.1602102555628968e-02 1.7641321056302885e+00 1.1418773376938527e-02  5.7659570165489693e-01 4.3568854194263335e-01 8.4522748505354706e-01  2.4116539303739870e-01 4.1255419564330098e-01 9.7577300366203534e-01  1.0803432833903965e+00 2.6412725946026012e+00 1.9050659068009837e-01  7.4948109443575683e-01 2.2294056768431312e+00 3.3961110848537568e-01  -4.9111795988562873e-01 2.4365313750091580e+00 -3.0066795984985226e-02  -4.9902789377033391e-01 1.7985057481802416e+00 3.9256361681535840e-01  9.8817506389987453e-01 2.0705566735609149e+00 3.6289507980286717e-01  -5.1552533844669169e-03 1.1636449838208169e+00 4.8197278505948160e-01  3.2463076383507489e-01 2.0896243191187089e+00 -3.6576328695009250e-02  3.3960651481671034e-01 1.8239561616404421e+00 1.7590246008804286e-01  1.8702611570092783e-02 1.8012545504006272e-01 1.0077469124179324e+00  -7.2597755789207141e-01 2.5309390170164940e+00 1.8309998582722462e-01  1.7372088367287070e-01 1.5998983242998985e+00 1.8751429203876266e-01  3.1379268971066532e-01 2.3715930748419392e+00 -2.4452174836289711e-01  -3.1933371127573862e-01 5.6989893300793570e-01 9.5180251328978738e-01  -4.9234479795142455e-01 5.6743954405122021e-01 8.9457732120564715e-01  6.0422193484433680e-02 2.2227082486890888e+00 -3.4006864925588798e-01  -1.7626870849793605e-01 1.9719727418169390e+00 -9.4696836592625316e-02  -9.0215683628640675e-01 6.3593039749617342e-01 4.9736768590273983e-01  -9.6819071942941626e-01 8.6265095565547512e-01 3.6599280116317517e-01  -3.5872803583283014e-01 2.1254945366331990e+00 -1.6414327375966774e-02  -3.0362169491987057e-01 1.8324430537773586e+00 1.2545122448146911e-01  -1.0087449974114837e+00 2.8373157955681799e-01 1.4517400512116854e-01  7.8730182573223062e-01 1.3593029864239128e-01 6.4528253012946513e-01  -6.4329684884274241e-01 1.3899135505416893e-01 7.8863866538801519e-01  -1.1018000871124769e+00 1.7616159880129383e+00 1.6902630950367351e-01  1.0490213469907221e+00 1.3518842500025579e+00 1.7949470189408170e-01  -4.9410592514043417e-01 8.7212703390244362e-01 8.5750114827083534e-01  -5.9998816075722250e-01 7.3518120220126271e-01 8.3547001948744926e-01  7.0400653484791621e-03 1.4865677868174121e+00 2.2324998215580172e-01  -9.7380451218183961e-01 1.3953197369697046e-01 2.9528875753368455e-01  -5.4854410762967520e-01 2.6240703655851285e+00 -7.5839632878656679e-02  1.0169348629025388e+00 8.5097202941920824e-01 1.3652048784754611e-01  -1.7375839220590655e-01 1.6441742305942908e+00 1.5321455559347927e-01  6.8783777889059461e-01 6.3567693896650446e-01 7.6998095512147069e-01  -9.1145589537710259e-01 3.5591851795562451e-01 4.6267054132276242e-01  2.1728183261560599e-01 2.2379286203462394e+00 -2.5994343227931838e-01  8.1496759367578275e-01 1.5809062261420748e+00 5.7463872901063617e-01  4.6391781969569601e-01 1.1624316525914420e+00 7.2949251356589084e-01  -3.0138855554941180e-01 2.2775348180493440e+00 -1.9778181890730631e-01  7.5097832957545696e-01 1.9409693472971556e+00 4.6042315505874010e-01  9.8866544989503369e-01 1.7437855809231895e+00 4.1723914244803373e-01  -7.4497763826385222e-01 4.5688234419210583e-01 7.0643347194680783e-01  2.0960736883875750e-01 7.3398562401691991e-01 9.0609102118554341e-01  -5.3182543585382958e-01 2.0591250242732619e+00 2.7137009087837022e-01  -5.7629084265129660e-01 1.2331520186826039e+00 7.2456491223120423e-01  -7.3284856607474880e-01 1.0367185976767286e+00 7.3014270310894414e-01  -7.7944680215270823e-01 1.3473162965920453e+00 6.4978922571851261e-01  9.4916335965392629e-01 9.3829635108591836e-01 4.3147413880028251e-01  -9.8623571302647972e-01 1.1806743688268770e+00 3.8137348235600299e-01  8.9753082500495984e-01 1.2523479503317361e-01 4.7944852529201404e-01  9.1645372817982640e-01 3.8443378244717291e-01 4.5385698475246428e-01  -5.8497321747214404e-01 1.5493857664578801e+00 5.8610134617831888e-01  9.8514990241339162e-01 1.4462334681466018e+00 4.3128170658328990e-01  -7.9948954