<?xml version="1.0"?>
<VTKFile type="UnstructuredGrid"  version="0.1"  >
<UnstructuredGrid>
<Piece  NumberOfPoints="758" NumberOfCells="1386">
<Points>
<DataArray  type="Float64"  NumberOfComponents="3"  format="ascii">-1.570796326794897 3.048 0  -1.570796326794897 0 0  1.570796326794897 0 0  1.570796326794897 3.048 0  0 0 0  0 3.048 0  -1.570796326794897 1.524 0  1.570796326794897 1.524 0  -0.04609926118424437 1.524 0  0.7853981633974483 0 0  0.7623485328053261 2.262242601661362 0  -0.7853981633974483 0 0  -0.7853981633974483 3.048 0  0.392699081698724 0.7745759241961347 0  -1.570796326794897 0.762 0  -0.8084477939895706 2.0955 0  -0.68277245543452 0.8915343570675713 0  0.7853981633974483 3.048 0  0.778743707341909 1.468410948960538 0  2.780093748954961e-16 2.285302774973185 0  -1.570796326794897 2.286 0  1.570796326794897 0.762 0  1.570796326794897 2.286 0  -0.9375370967763674 1.47348297960658 0  0.9831575747762593 0.9003629142671278 0  -0.3926990816987241 0.4064697549061488 0  1.177419588818055 1.905 0  0.3692901340097942 1.880893989147954 0  -0.4920225169641509 2.564371687128368 0  0.3926990816987241 3.048 0  1.178097245096172 0 0  1.155705348811136 2.643920532523289 0  -1.178097245096172 3.048 0  -1.178097245096172 0 0  -0.1391296372266528 0.8873724190154949 0  -1.10527745318919 2.528282743051346 0  -0.9817477042468103 0.4742759268549471 0  -0.3416666987802651 1.923944646262223 0  -1.570796326794897 1.905 0  -1.156555306160469 1.030861936336814 0  0.7648449098493205 0.4764142032227 0  0.3926990816987241 0 0  -0.4820376416180818 1.326151321396512 0  0.06374421723344185 0.4545169930886408 0  0.1972735722393064 1.163324878565267 0  0.3900417218314142 2.566922767651637 0  1.570796326794897 0.381 0  1.188877612935585 1.295195418509834 0  1.179914028402171 0.5308585702661928 0  0.7660075594126428 1.865233039449035 0  0.6330293131838399 1.095171663968746 0  -1.201232463242587 2.144287146570887 0  -0.3926990816987241 0 0  -0.3926990816987241 3.048 0  1.178097245096172 3.048 0  0.7684409382397209 2.649499271873753 0  -1.236954997304436 1.7145 0  -0.1088573452899617 2.666651387486592 0  -1.570796326794897 1.143 0  -1.570796326794897 0.381 0  1.570796326794897 1.143 0  1.570796326794897 1.905 0  1.570796326794897 2.667 0  -1.570796326794897 2.667 0  -0.6730839067294777 1.743003792473746 0  1.199831389396789 2.275437921225198 0  0.3936837537618041 1.495643752599615 0  0.01539369169800942 1.928544709491661 0  0.4156551272669651 0.4219033286010089 0  0.3401546043708642 2.225103550856524 0  -0.3379897306391274 2.262671266279809 0  -1.23624174049596 0.7000907110925838 0  -1.265224057170889 1.360131453617764 0  -0.1224339018241312 1.210043725539656 0  1.289286200625578 0.9918698881707442 0  -0.7751142346211329 1.197848666814478 0  1.003546186550495 0.2660297686099683 0  0.1963495408493621 2.808538634159524 0  -0.8079023568959116 2.703551618159924 0  -0.3480226984353056 1.610059855391589 0  1.075147893506229 1.598068412087719 0  -0.8290627893979112 2.399544545867518 0  0.6965048925255637 0.7972100472372819 0  -1.257765094876752 0.3107645483825858 0  -0.6724835324263325 0.5684215760013651 0  -0.3995059642389676 0.7173610149075536 0  0.9136951972244611 1.187564504803626 0  -0.964259350608907 0.8095514380783081 0  -0.7565990314517038 0.2897049735129544 0  -0.9603859887840651 1.834914433810327 0  -0.1457055965762301 0.2521630699436873 0  0.1963495408493621 0.2041911848053476 0  0.6241974196550791 0.231695999252114 0  -0.4098815011312292 1.029160072548571 0  0.9592800715482012 2.452820690856482 0  0.9648684169153161 2.840751931000357 0  0.5890486225480862 3.048 0  0.164631037784102 1.698913854044779 0  0.5664480837073581 2.070920238540226 0  1.374107957806476 1.7145 0  0.9861079629544779 2.102471438422718 0  -1.374446785945534 3.048 0  -1.288827800789186 2.762781313597598 0  1.353232957571468 2.835634774483438 0  1.302158670506274 0.2650078124691045 0  0.1394669809465775 0.8907702620243092 0  -0.5631487221059602 2.830992231257464 0  1.372837635547072 2.483038902756259 0  -0.1493395228831287 0.618617259260858 0  -1.32327048447753 2.378769394323546 0  0.56080204725298 1.699622905297025 0  1.570796326794897 2.0955 0  0.5403456747786348 2.786446773498672 0  -0.9817477042468103 0 0  -0.5847039960246873 2.326882432521036 0  0.1225428891326576 2.526494255738436 0  -0.9817477042468103 3.048 0  -0.5522901559753841 2.071668786267058 0  -1.370864794258017 0.9075071715671403 0  -1.043891045637083 1.250611220450313 0  -0.1652643923634778 2.09141301924679 0  -1.044446740946883 2.764982067459552 0  -0.1610370079820225 1.763280243096074 0  -0.3136912237752232 2.810498886211121 0  0.5400974078002052 2.370472734822523 0  -0.7009161718414544 1.427243880175582 0  0.902907438200502 0.6735032943420574 0  -0.9879196222361604 0.2371379634274736 0  1.319268546233604 0.7412771512308228 0  0.5578373583610097 0.608241627784878 0  0.5756483102040615 1.332636919938113 0  -0.5281701577409 0.2032348774530744 0  -0.266729509930448 2.489223923247521 0  -1.570796326794897 0.5715 0  -0.2430656531629531 1.405631921096758 0  0.253622337931223 0.5884397663452474 0  1.284044721043478 1.50372037617638 0  1.570796326794897 1.3335 0  -0.9904333867980613 2.235882060371517 0  0.9871146764618406 1.395690276854986 0  -1.374446785945534 0 0  0.3981951765262902 1.020833864419675 0  0.1670583512016766 1.405384478716078 0  -1.330327693484763 1.938638984813805 0  0.2106653067452682 2.040805097078886 0  1.570796326794897 0.5715 0  1.334822181490566 2.081373939821734 0  -0.9303227889097604 1.033236710715967 0  -1.34639228476592 1.150776798768373 0  -1.570796326794897 0.1905 0  1.106697207481837 1.099709897393925 0  0.4137866939027022 0.2104288000383385 0  -1.570796326794897 2.0955 0  0.9761377489246634 0.4754251272674608 0  1.377108465632662 0.4605024587280874 0  1.108114944719677 0.7297638044096917 0  0.3695908229138113 1.285681859811955 0  0.9799112840676307 1.800306505551499 0  -0.001696842075803034 1.042028929293442 0  1.366537356420357 1.185723700290463 0  -1.385029840108318 0.47625 0  0.05842649915411911 0.6874537157920781 0  -1.183268988745763 0.4997334438341218 0  -0.6073502281622543 1.081347079085406 0  -1.026941765261019 2.031536576622642 0  -1.570796326794897 2.8575 0  0.8159726599830506 1.011928543199529 0  0.7652782693277244 2.849245002237192 0  -0.5252326280373281 1.520125074885265 0  0.7648326174724897 2.063743853392348 0  0.757099741434616 1.666331708950521 0  -0.1963495408493621 3.048 0  -0.005410422648647092 2.843333256403111 0  -1.395368347654653 2.19075 0  1.374446785945534 0 0  0.9817477042468103 3.048 0  0.1963495408493621 0 0  -0.1963495408493621 0 0  0.5890486225480862 0 0  0.1963495408493621 3.048 0  0.9817477042468103 0 0  1.374446785945534 3.048 0  -0.5890486225480862 3.048 0  -0.5890486225480862 0 0  -0.06865319188571758 2.471928549109083 0  1.159049337209348 2.838090892449816 0  0.5817075150535711 2.596909954318943 0  0.7656515661107315 2.455866896253367 0  0.9620790410056582 2.647119292933887 0  0.3676829480103987 1.68739481709134 0  -0.8886101495223063 2.878912500124773 0  -0.3317793704126089 0.1873756770788371 0  -1.383208664444332 2.577695923010364 0  -1.043597917648523 1.648216005744782 0  -1.362178343413552 1.546177620526679 0  -1.570796326794897 1.7145 0  -0.8462722504471433 1.648434957877788 0  -0.588076822054871 0.3899352838051667 0  1.570796326794897 2.8575 0  -1.570796326794897 0.9525 0  1.570796326794897 0.1905 0  1.570796326794897 1.7145 0  1.570796326794897 0.9525 0  -1.570796326794897 1.3335 0  1.570796326794897 2.4765 0  -1.570796326794897 2.4765 0  0.8103777117362174 0.287468585434799 0  -1.145334531235929 1.881885620422454 0  -0.8620560674467429 0.6361265362229395 0  -0.321688879263093 1.207848147265888 0  -0.7798551871678058 1.904240998338365 0  -0.4724954359209014 1.769587110195458 0  -0.667402576232105 2.495985359319255 0  0.5365063314111709 0.8945566719544227 0  0.1855702280441107 2.342745654422604 0  0.55510120733165 1.88540118775351 0  1.188295809121239 2.460939894898248 0  1.38587897409014 2.260870763688798 0  1.383978812419919 1.901097375082534 0  -0.2265735189171196 1.049795314962436 0  0.7387890113368257 1.246392780742437 0  0.5763234466275948 1.516457524623135 0  -0.203279258075353 0.4348372558382012 0  -1.179202350299698 1.523245956950107 0  -1.151844216720993 2.318990544544152 0  -1.410806081599612 0.6547540757597369 0  0.04190096621848406 2.108399609871347 0  0.5925649981629265 0.4343292987553075 0  0.2371113691258682 0.4102816185532077 0  1.334103818253725 2.657728219912091 0  0.9405077369493808 2.275181409651143 0  -0.633962040105568 2.669303984283053 0  -0.6045614816381242 1.904349918307267 0  1.159697673803787 2.079238591118184 0  -0.004643801590645341 1.347662554528907 0  0.3691400131247499 2.395423267764724 0  0.3855005143298051 2.055603978165229 0  0.01839821075864462 0.1788084577298442 0  -0.9568120219060965 2.61629404172056 0  0.1783135820912846 1.871116340262054 0  0.3649950158263953 2.745288921627024 0  -0.3142054567155264 0.5671999812317062 0  -0.4933549623779417 0.564740705097546 0  0.06092775470575962 2.685867440722903 0  -0.1801827362748675 2.337517890002858 0  -1.063355415037434 0.6386189748554 0  -1.205242865599393 0.8676070232612285 0  -0.4176020549597784 2.412196127179313 0  -0.3347051678178828 2.093252344225509 0  -1.427772711006951 0.2857500000000001 0  0.8835729338221293 0.1362887052191026 0  -0.6831011505337878 0.1389086130988801 0  -1.403875662049666 1.77648180985222 0  1.394165436236593 1.362588987767805 0  -0.5007942298153729 0.8700626692351643 0  -0.6093220848169366 0.7321530406295067 0  0.007534593095922887 1.760126887057542 0  -1.276272015520854 0.140425968067263 0  -0.7270478511000733 2.847016806985676 0  1.436331331726002 0.85725 0  -0.1770320080670663 1.927167796173981 0  0.7200726153501196 0.6345534912379586 0  -1.099983122078282 0.3577316115390257 0  0.2324759135153202 2.648405702327079 0  0.9054371869972004 1.582409569434113 0  0.5000672234640285 1.188708149930449 0  -0.340793734207542
[...]
<PointData  Vectors="phi"> 
<DataArray  type="Float64"  Name="phi"  NumberOfComponents="3" format="ascii">-1.1085399912636356e+00 3.0335912992043959e+00 -1.8485477929586501e-05  -1.0160101992694373e+00 -3.7448050653143051e-08 -9.4381573667308643e-06  1.0160103397470406e+00 -2.6274009014781486e-08 -1.1283071434004589e-05  1.1084279817052152e+00 3.0336049374245317e+00 -9.3434303077498869e-06  -6.0063605386930961e-06 2.5642900154594029e-08 1.0160118947540275e+00  1.0624235155351818e-04 2.9243525532032382e+00 4.2274968051035605e-01  -1.0481958534341780e+00 1.5142895308139737e+00 -1.7762858541356376e-05  1.0481785425927710e+00 1.5142943589057578e+00 -2.5822402173476814e-05  -4.6808728903268322e-02 1.5329909219878364e+00 9.4636044470120495e-01  7.1842702077217646e-01 5.1984781820756495e-08 7.1841679484848975e-01  7.4671822140789057e-01 2.2621086402140982e+00 7.1960787639948554e-01  -7.1842438606944548e-01 -2.7738331751993140e-07 7.1841846746491977e-01  -7.6063722717844384e-01 3.0447929433130212e+00 6.3711566870921887e-01  3.9076305140052786e-01 7.7855399138925718e-01 9.2484556156456288e-01  -1.0270560919668574e+00 7.5664221343095028e-01 -1.9882783353010958e-05  -7.7758168166269892e-01 2.0938956378045872e+00 6.9222505272977763e-01  -6.5048375140063297e-01 8.9218270802461763e-01 7.8431603119878768e-01  7.6058539733063912e-01 3.0448442809681278e+00 6.3735969655305669e-01  7.3738863069540894e-01 1.4675215700626796e+00 7.1758373879473336e-01  2.3710643382454458e-05 2.2804557209001950e+00 8.3091543451268335e-01  -1.0772263405820945e+00 2.2732362775332975e+00 -2.1335079070108041e-05  1.0270598072971615e+00 7.5664383825888770e-01 -3.0850308905803393e-05  1.0771595790210042e+00 2.2732479933789627e+00 -5.2271205320170481e-05  -8.4832616480646961e-01 1.4695779156631683e+00 6.0059457135111161e-01  8.6000467266511504e-01 8.9718737332133258e-01 5.6406509991474241e-01  -3.8922992776882681e-01 4.0868037258402617e-01 9.3284564064772268e-01  9.8592446970159420e-01 1.8961271754957274e+00 3.9004358295656300e-01  3.7375203457127715e-01 1.8881710570704642e+00 8.8628222766656839e-01  -4.8809428174850511e-01 2.5633708500282504e+00 7.6284701064433469e-01  3.7837082669426286e-01 2.9929855199989435e+00 5.4585850565202831e-01  9.3865836102434785e-01 -2.5505986244194774e-07 3.8880589295478013e-01  1.0150139560366793e+00 2.6330135034273554e+00 4.1233469840970249e-01  -1.0502631238316600e+00 3.0357539578693205e+00 3.9320189540099731e-01  -9.3865623715531554e-01 -3.6968245212533426e-07 3.8881402809511784e-01  -1.4080252553049152e-01 8.9380890009002334e-01 9.7766672493173568e-01  -9.8580189076774305e-01 2.5186571207322976e+00 4.5804314233235621e-01  -8.5059113413435106e-01 4.7248709849771764e-01 5.6523562246109293e-01  -3.4654395029536372e-01 1.9315483443086914e+00 8.8943984441618207e-01  -1.0623634441322227e+00 1.8935790892222328e+00 -2.4380766297350671e-05  -9.4835588540850835e-01 1.0255391451055618e+00 4.0982974341710426e-01  7.0800883976827644e-01 4.7608234042173730e-01 7.3279547616927221e-01  3.8881359861862064e-01 4.3351549434107306e-07 9.3866369055861454e-01  -4.7883227183086463e-01 1.3307247317694244e+00 8.7597169913357609e-01  6.4551614125773329e-02 4.5834638163393049e-01 1.0011621659660794e+00  1.9947089667617607e-01 1.1706942026009095e+00 9.5655113983414553e-01  3.8600722496671613e-01 2.5576358276294693e+00 7.5027283350507146e-01  1.0213790152867626e+00 3.7822763782651808e-01 -1.9586386119740685e-05  9.6879513297802244e-01 1.2884489885004413e+00 3.7948324306264164e-01  9.4654497192668885e-01 5.2782787358142957e-01 3.8783196983961088e-01  7.3715439771645019e-01 1.8646175142486503e+00 7.2159024530578508e-01  6.1208867915840726e-01 1.0967929698463985e+00 8.1077208791913058e-01  -1.0048407083100923e+00 2.1343103490177309e+00 3.6763059240772750e-01  -3.8880270870163602e-01 -2.8795382770677311e-08 9.3865925375357906e-01  -3.7821430944147771e-01 2.9930915865666337e+00 5.4599153095969832e-01  1.0501575083860426e+00 3.0357550375421414e+00 3.9320704548480029e-01  7.5792818249762628e-01 2.6498735746090851e+00 6.9764321559249676e-01  -1.0002071739487608e+00 1.7055950520337742e+00 3.3353892788010453e-01  -1.0965429851079482e-01 2.6110660313193188e+00 6.4153349718843411e-01  -1.0361880282107294e+00 1.1353217684803947e+00 -2.6415234947580560e-05  -1.0213801814661265e+00 3.7822697590186155e-01 -2.4916786919786193e-05  1.0361858329273765e+00 1.1353243473412720e+00 -1.0220149201445676e-05  1.0623199269443624e+00 1.8935865786216193e+00 -5.1167971662959734e-05  1.0924409494808229e+00 2.6532575760305175e+00 -2.2416987145067731e-05  -1.0925451514325699e+00 2.6532453533773150e+00 -2.2296202752337351e-05  -6.5724556311679871e-01 1.7444897604871974e+00 7.7771943044710146e-01  1.0103832014943144e+00 2.2650557994277913e+00 3.6916144570009402e-01  3.9522496805907026e-01 1.5019428206833179e+00 8.9861633791486706e-01  1.5704504930731295e-02 1.9372570638979023e+00 9.1652893754153208e-01  4.1087833567146675e-01 4.2405088924287948e-01 9.2391148687331592e-01  3.4476656768243746e-01 2.2311114133096908e+00 8.5610877244525985e-01  -3.4193833938265716e-01 2.2677476798408622e+00 8.4782544840799356e-01  -9.6991332308982969e-01 6.9589076592808063e-01 3.3427271864238456e-01  -9.9676243718708701e-01 1.3524399811790453e+00 3.0628755417490938e-01  -1.2407756429824938e-01 1.2179936684512505e+00 9.6251001907695088e-01  9.9290532712876423e-01 9.8582743253891458e-01 2.8281757665170398e-01  -7.2860317097794736e-01 1.1971113069610606e+00 7.2232670212633010e-01  8.5977439363684593e-01 2.6494285513846749e-01 5.4655639274684398e-01  1.9525652369153468e-01 2.7453866175731294e+00 5.9068285149768229e-01  -7.9326973792445676e-01 2.7027808296455458e+00 6.7501607728026380e-01  -3.5091835799402515e-01 1.6171962326998968e+00 9.0467565696719510e-01  9.2937954443308313e-01 1.5916152233942604e+00 4.8380240246254308e-01  -8.0538088488725856e-01 2.3976285459119824e+00 6.7625735051913693e-01  6.6010844780148215e-01 7.9760710720315686e-01 7.7660047172744207e-01  -9.7082234019077485e-01 3.0879585817799221e-01 3.1345167309521188e-01  -6.3761287806051703e-01 5.6890335853689844e-01 7.9302914863546969e-01  -3.9698412909298403e-01 7.2102385765670107e-01 9.2394755783092697e-01  8.2530524045201059e-01 1.1845852489268025e+00 6.2039895885143592e-01  -8.4697335129779772e-01 8.0683336157667740e-01 5.7990966317812109e-01  -6.9958342157819131e-01 2.8952298968435008e-01 7.3878862162970760e-01  -8.7390125261158103e-01 1.8299170037769072e+00 5.8097430099806935e-01  -1.4725170047900105e-01 2.5424917111840728e-01 9.9921503980156434e-01  1.9793788140435739e-01 2.0580524512233994e-01 9.9216156640697750e-01  5.9474644600564264e-01 2.3206303895003852e-01 8.2366431723714473e-01  -4.0839025869013301e-01 1.0339319224272783e+00 9.1152542961485561e-01  9.0082704594049012e-01 2.4469176130401906e+00 5.8215836393387110e-01  9.2261673507303099e-01 2.8347113120250147e+00 5.7432690322434399e-01  5.6305964540599851e-01 3.0286943116842422e+00 6.1664212672096319e-01  1.6718787154944581e-01 1.7077018022284913e+00 9.2749072256573151e-01  5.6760204477860077e-01 2.0753502466313649e+00 8.1956884850283729e-01  1.0360938544413090e+00 1.7044786644884606e+00 1.9885453448677698e-01  8.9961789506493706e-01 2.0964379176371422e+00 5.5959775918385157e-01  -1.0964925068966416e+00 3.0339107536974725e+00 1.9941754269561968e-01  -1.0648206836522605e+00 2.7498266623222403e+00 2.8432405201295646e-01  1.0820310826322048e+00 2.8220609648120871e+00 2.2032618783474603e-01  9.8319715247187345e-01 2.6326355120541978e-01 2.7016172953736195e-01  1.4112170996909876e-01 8.9722375231283746e-01 9.7747167121665979e-01  -5.4716940402773329e-01 2.8212670919741232e+00 6.8345772095823420e-01  1.0673139555736293e+00 2.4703025913023180e+00 2.0022102926068286e-01  -1.5094977338575175e-01 6.2341623561328330e-01 9.8740840336792890e-01  -1.0522616490928087e+00 2.3666984390260017e+00 2.4944302111230895e-01  5.5624833051892597e-01 1.7034539966287416e+00 8.3278002713370136e-01  1.0697537691017460e+00 2.0833685102700890e+00 -2.2997054273872374e-05  5.2656103830027468e-01 2.7771331641485166e+00 6.9515550464911569e-01  -8.4477429584174912e-01 -7.0048353334450023e-08 5.6446201673858631e-01  -5.8734420557532074e-01 2.3314583470005910e+00 7.9746512146110182e-01  1.2327621042585410e-01 2.4919626231803957e+00 7.1547960296056767e-01  -9.4067349356946073e-01 3.0414609648690174e+00 5.5753958718096341e-01  -5.5423370596743193e-01 2.0764074194051143e+00 8.2485670776613373e-01  -1.0102778695655361e+00 9.0157510175242517e-01 2.0215261096471263e-01  -9.0248300779343227e-01 1.2456496028060882e+00 5.1171989601321100e-01  -1.6832621635187942e-01 2.0986073282015854e+00 8.9109203918507529e-01  -9.7009030102342186e-01 2.7563203911618848e+00 5.1255166152721887e-01  -1.6368095516775147e-01 1.7721024774644438e+00 9.2344378112867909e-01  -3.0706734697043037e-01 2.7664329087395290e+00 6.2495349643529507e-01  5.4316224294858417e-01 2.3753831290156366e+00 8.0376198669006760e-01  -6.7457755053653246e-01 1.4279139816911053e+00 7.6712018722288777e-01  8.0662011097458719e-01 6.7172109986580020e-01 6.2976574922664130e-01  -8.5070137080176988e-01 2.3621334342536024e-01 5.5980670930572585e-01  9.9498098906840460e-01 7.3650270123453343e-01 2.5336186239657144e-01  5.4133153279380386e-01 6.0992076524546335e-01 8.5734483124950611e-01  5.6503737308431667e-01 1.3356082303205594e+00 8.3576482755383974e-01  -5.1238952435661345e-01 2.0389254822320363e-01 8.7624716524720581e-01  -2.6592600522567711e-01 2.4742046736588192e+00 7.5978444456956440e-01  -1.0237802177829407e+00 5.6740080456500097e-01 -1.5134295123089671e-05  -2.4570375227219546e-01 1.4134176156327611e+00 9.3616873388712707e-01  2.5494209394666839e-01 5.9254935024838107e-01 9.6982385801830517e-01  1.0070729249635320e+00 1.4952430396736049e+00 2.8793064088839804e-01  1.0418521239394627e+00 1.3247714754338169e+00 -1.4625342348373398e-05  -9.0831935257124707e-01 2.2295029950424849e+00 5.5622679675771391e-01  8.7577724248105826e-01 1.3911312605286945e+00 5.6016790141249029e-01  -9.9647575061611182e-01 -5.1660446035155323e-07 1.9820693607104772e-01  3.9715813166397307e-01 1.0257195887867476e+00 9.1570359594793571e-01  1.6925201488028557e-01 1.4137056913363295e+00 9.4637990711754383e-01  -1.0353134925366063e+00 1.9280206738871433e+00 2.4235679168089500e-01  2.1466846550624097e-01 2.0487094975895932e+00 8.9619217561557452e-01  1.0237833090875017e+00 5.6740164105439617e-01 -2.6668486025090456e-05  1.0420544874996160e+00 2.0702073328545691e+00 2.3790117890631624e-01  -8.3181694701703879e-01 1.0303414878798800e+00 6.0746704703620713e-01  -1.0115444485131075e+00 1.1435989379098472e+00 2.2651476811162929e-01  -1.0186976221999384e+00 1.8912360397584993e-01 -3.3465607613785965e-05  9.2871256546166414e-01 1.0945612510014535e+00 4.5573190469070018e-01  4.0851733506297661e-01 2.1150974722176302e-01 9.2781447120089755e-01  -1.0698078683620120e+00 2.0833599452734357e+00 -3.1289741766965340e-05  8.4741113586616423e-01 4.7366470839390490e-01 5.6995703437600820e-01  1.0032696496387596e+00 4.5733301704043700e-01 1.9595990212573886e-01  9.2009522533385379e-01 7.2614273888147007e-01 4.5436993341584964e-01  3.7067793461701198e-01 1.2917807366400114e+00 9.1448794131207722e-01  8.8452058345742690e-01 1.7949847738562807e+00 5.6515417560847314e-01  -1.7262020529694557e-03 1.0495407272808401e+00 9.7739913147499702e-01  1.0168134531092747e+00 1.1782677353705246e+00 2.0646952683184114e-01  -1.0049978430453452e+00 4.7296174768081223e-01 1.8802947617423471e-01  5.9195496753062363e-02 6.9294131239359147e-01 9.9292152223735908e-01  -9.4734811345128234e-01 4.9685793039960058e-01 3.8467224781627601e-01  -5.8979439175334814e-01 1.0833700682541267e+00 8.2482600308846377e-01  -9.2002228701815458e-01 2.0248010547293323e+00 5.2529848025607939e-01  -1.1008271668637835e+00 2.8433693382506577e+00 -3.1046565170066211e-05  7.5476717612552413e-01 1.0106516380519335e+00 6.9486623723345198e-01  7.4919231758941762e-01 2.8483543833111686e+00 6.7287030493585820e-01  -5.2109832691698077e-01 1.5243433298960021e+00 8.5288472507656066e-01  7.4204663300793183e-01 2.0632693432557914e+00 7.2034698081519299e-01  7.2511135361521717e-01 1.6658815082705647e+00 7.2953399934100827e-01  -1.9554447390837068e-01 2.9521917931661905e+00 4.7040266249692414e-01  -5.4321017647899015e-03 2.7588801416603563e+00 5.4412901945740022e-01  -1.0587059556400902e+00 2.1787839910128453e+00 1.7755575720948277e-01  9.9647629444222674e-01 -6.3534212576812622e-07 1.9820981324377768e-01  9.4070427072225482e-01 3.0414406003706924e+00 5.5766507529997000e-01  1.9820906245305045e-01 1.0914844195615076e-06 9.9648731233998222e-01  -1.9821701284150450e-01 5.2687484478832277e-07 9.9648088416436731e-01  5.6445629386305141e-01 1.4546634594876049e-07 8.4477675144223774e-01  1.9570104132517285e-01 2.9520784838835272e+00 4.7024820692883024e-01  8.4477708577588184e-01 -6.2131389911519416e-08 5.6446139919218219e-01  1.0963808510086277e+00 3.0339151487635001e+00 1.9942550620909666e-01  -5.6294960044776876e-01 3.0287209310325989e+00 6.1655918645101804e-01  -5.6446164011219646e-01 7.0885753018123919e-08 8.4476923094213441e-01  -6.9175705008501689e-02 2.4423245999637406e+00 7.3852615321572712e-01  1.0292191085042672e+00 2.8266269967203721e+00 4.1007394240239708e-01  5.7725239218289537e-01 2.5985058690323917e+00 7.5275185841401382e-01  7.5478962924777659e-01 2.4561023018697896e+00 7.1229417483159008e-01  9.1306062919519693e-01 2.6410680838394525e+00 5.7956711859023469e-01  3.7077493264795031e-01 1.6944170362668256e+00 8.9626865397181243e-01  -8.6274584722644276e-01 2.8755654566143387e+00 6.2063057399590993e-01  -3.3074535244010056e-01 1.8856485640626008e-01 9.5779266636960092e-01  -1.0736551807129322e+00 2.5646199974809232e+00 1.8991878556258626e-01  -9.1499963665354445e-01 1.6421121807460162e+00 5.1147153919828992e-01  -1.0276170639658524e+00 1.5369674340112209e+00 2.1079129715621805e-01  -1.0550888626794526e+00 1.7038912191098918e+00 -3.4896514182267320e-05  -7.9205147711772428e-01 1.6460580880165223e+00 6.6927367007474914e-01  -5.6556067081182204e-01 3.9081379080711121e-01 8.4330817296461136e-01  1.1006736514479247e+00 2.8433872530029731e+00 -2.1030422921491383e-05  -1.0312364500884561e+00 9.4594834021900509e-01 -1.7686431207420651e-05  1.0186916937488346e+00 1.8912341857987711e-01 -2.9405924793363830e-05  1.0550566009443338e+00 1.7038973549146139e+00 -2.0994451760710762e-05  1.0312397414059027e+00 9.4595003442613135e-01 -4.9917231569224222e-05  -1.0418615376659386e+00 1.3247678007124690e+00 -3.2342196426042393e-05  1.0846428825665966e+00 2.4632124485846880e+00 -1.6019860331262618e-05  -1.0847091950299168e+00 2.4632023865802060e+00 -1.8994070657053533e-05  7.3854424304171085e-01 2.8704430683248250e-01 7.0049270188946833e-01  -9.7189999071203825e-01 1.8735324800184863e+00 4.1991031026964254e-01  -7.7922490700270441e-01 6.3479222244741806e-01 6.6159288316926268e-01  -3.2342802388627934e-01 1.2142787979443028e+00 9.3037060226283874e-01  -7.4921023168358480e-01 1.9033005425441363e+00 7.1235595279085140e-01  -4.7378031825235495e-01 1.7751900378338379e+00 8.6345220319465577e-01  -6.6514211125830514e-01 2.4988815375853872e+00 7.5229432686917608e-01  5.2507205890123110e-01 8.9724265223382060e-01 8.6351325732077377e-01  1.8673700238974239e-01 2.3370385049805797e+00 8.1435549948481634e-01  5.5375734015199030e-01 1.8896614026909988e+00 8.2978065726778538e-01  1.0159917616252423e+00 2.4501117753645008e+00 3.8066998376285405e-01  1.0598972890297287e+00 2.2487410628523281e+00 1.8705048009814987e-01  1.0450852347132544e+00 1.8902549329946878e+00 1.8898745782162421e-01  -2.2869601827566122e-01 1.0565007003941551e+00 9.5753674259809007e-01  7.0154188987992694e-01 1.2462845549528749e+00 7.4587251005091915e-01  5.6800569324093797e-01 1.5196985073651075e+00 8.3095423648401923e-01  -2.0483026444801278e-01 4.3816774622147009e-01 9.8470575782365022e-01  -9.7261768755656108e-01 1.5156927252862384e+00 3.8855693677199610e-01  -9.9390887107084747e-01 2.3091764512776631e+00 4.1431009462652346e-01  -1.0122013704686190e+00 6.5025675496464019e-01 1.6214489186041800e-01  4.2666826889351021e-02 2.1147208720638941e+00 8.8991462563240820e-01  5.6979889030572195e-01 4.3527510361158750e-01 8.4051906921038899e-01  2.3841523843893850e-01 4.1330604300648977e-01 9.7846681540395575e-01  1.0686725209126600e+00 2.6447320313411273e+00 2.3913026793815884e-01  8.7934770538305040e-01 2.2699612712769262e+00 5.9651669178566269e-01  -6.2650008052048189e-01 2.6703127373873121e+00 7.3098791654991202e-01  -5.9970956377731965e-01 1.9076034499568908e+00 8.0830793690607872e-01  9.8587368768771300e-01 2.0700563122607143e+00 4.0657583957420729e-01  -4.7175675470216135e-03 1.3563037433074057e+00 9.5898808304262440e-01  3.7024689423387708e-01 2.3962071711656314e+00 8.1024980550201198e-01  3.9122604988366400e-01 2.0627757288236137e+00 8.7224056209726353e-01  1.8652289681372426e-02 1.8038254450362154e-01 1.0115005932218690e+00  -9.0801391354655592e-01 2.6103993287052498e+00 5.8376740775367075e-01  1.8150054314639860e-01 1.8797901767086316e+00 9.1455123153912599e-01  3.5707553536926867e-01 2.7163509238096473e+00 6.6958914550770698e-01  -3.1434619532470731e-01 5.7080588455254067e-01 9.5497639090165620e-01  -4.8343071631434181e-01 5.6689657288989126e-01 8.8899421554344327e-01  6.1639963789740369e-02 2.6242167188499583e+00 6.2593586502748411e-01  -1.8134264504246744e-01 2.3320601177440659e+00 8.1607167049688234e-01  -8.9695668066289580e-01 6.3568973858834832e-01 4.9458507989864470e-01  -9.6288590054065004e-01 8.6269616986178665e-01 3.6395440380499827e-01  -4.1868973157014905e-01 2.4142995208591747e+00 8.0647781378113159e-01  -3.4027567227367639e-01 2.1006546210785797e+00 8.7706182130810828e-01  -1.0097388648494383e+00 2.8372492073942468e-01 1.4512641139181787e-01  7.8632791680533387e-01 1.3594205556685873e-01 6.4475773873511544e-01  -6.4183820649218459e-01 1.3898458072449260e-01 7.8784303726277738e-01  -1.0437679348183848e+00 1.7660275809243497e+00 1.6907159762162183e-01  1.0274491320451007e+00 1.3540972386736025e+00 1.7882227616145385e-01  -4.9247319664131389e-01 8.7315138888125710e-01 8.8027399574747367e-01  -5.8714162540706349e-01 7.3354772777879895e-01 8.2859102635964876e-01  7.6813801260538755e-03 1.7692811358228480e+00 9.3011149099233681e-01  -9.7387268280303441e-01 1.3953511426096352e-01 2.9519451204538411e-01  -7.1126287450300363e-01 2.8459644376080160e+00 6.8102370275085189e-01  1.0200186139083913e+00 8.5143507259746110e-01 1.3645163440536065e-01  -1.8035084453758693e-01 1.9357177822469849e+00 9.1030416204692333e-01  6.7625128247465605e-01 6.3460499125214753e-01 7.6247670580584181e-01  -9.0991523050992795e-01 3.5590890449173584e-01 4.6164344313853584e-01  2.3117741824519045e-01 2.6099369344860972e+00 6.7661194069129449e-01  8.3092076077069132e-01 1.5789111567770004e+00 6.2545709311665865e-01  4.9451156202794300e-01 1.1926668388459669e+00 8.7289853472182688e-01  -3.3582254761616487e-01 2.6202860108352160e+00 7.0777400505446919e-01  8.3670374377946610e-01 1.9614883725856540e+00 6.3079840086779726e-01  9.6186255357081918e-01 1.7413500760353824e+00 4.3085595501370155e-01  -7.3875565226057660e-01 4.5651067495812453e-01 7.0243558107235771e-01  2.1200559731022536e-01 7.5005484623938457e-01 9.7333550740761421e-01  -6.6570939063820522e-01 2.1885559677413453e+00 7.7046522854326838e-01  -6.0293393804509121e-01 1.2443056366281060e+00 8.1542471207238454e-01  -7.1817616985956845e-01 1.0330451746844078e+00 7.2979343211120817e-01  -7.7945271405521621e-01 1.3434701085684226e+00 6.7596289130883025e-01  9.3795019927367151e-01 9.3807664133140056e-01 4.2777171906926653e-01  -9.6615451024402987e-01 1.1808019317381555e+00 3.7782728090436690e-01  8.9716422129682738e-01 1.2525522778551046e-01 4.7921630557891109e-01  9.1481612859865813e-01 3.8442453757552475e-01 4.5275961164116857e-01  -6.5265467869079330e-01 1.5851216834024053e+00 7.8160888964071762e-01  9.5202733101350778e-01 1.4449965469945869e+00 4.2988766049622390e-01  -9.2809147874330855e-01 2.38998516944514