<?xml version="1.0"?>
<VTKFile type="UnstructuredGrid"  version="0.1"  >
<UnstructuredGrid>
<Piece  NumberOfPoints="758" NumberOfCells="1386">
<Points>
<DataArray  type="Float64"  NumberOfComponents="3"  format="ascii">-1.570796326794897 3.048 0  -1.570796326794897 0 0  1.570796326794897 0 0  1.570796326794897 3.048 0  0 0 0  0 3.048 0  -1.570796326794897 1.524 0  1.570796326794897 1.524 0  -0.04609926118424437 1.524 0  0.7853981633974483 0 0  0.7623485328053261 2.262242601661362 0  -0.7853981633974483 0 0  -0.7853981633974483 3.048 0  0.392699081698724 0.7745759241961347 0  -1.570796326794897 0.762 0  -0.8084477939895706 2.0955 0  -0.68277245543452 0.8915343570675713 0  0.7853981633974483 3.048 0  0.778743707341909 1.468410948960538 0  2.780093748954961e-16 2.285302774973185 0  -1.570796326794897 2.286 0  1.570796326794897 0.762 0  1.570796326794897 2.286 0  -0.9375370967763674 1.47348297960658 0  0.9831575747762593 0.9003629142671278 0  -0.3926990816987241 0.4064697549061488 0  1.177419588818055 1.905 0  0.3692901340097942 1.880893989147954 0  -0.4920225169641509 2.564371687128368 0  0.3926990816987241 3.048 0  1.178097245096172 0 0  1.155705348811136 2.643920532523289 0  -1.178097245096172 3.048 0  -1.178097245096172 0 0  -0.1391296372266528 0.8873724190154949 0  -1.10527745318919 2.528282743051346 0  -0.9817477042468103 0.4742759268549471 0  -0.3416666987802651 1.923944646262223 0  -1.570796326794897 1.905 0  -1.156555306160469 1.030861936336814 0  0.7648449098493205 0.4764142032227 0  0.3926990816987241 0 0  -0.4820376416180818 1.326151321396512 0  0.06374421723344185 0.4545169930886408 0  0.1972735722393064 1.163324878565267 0  0.3900417218314142 2.566922767651637 0  1.570796326794897 0.381 0  1.188877612935585 1.295195418509834 0  1.179914028402171 0.5308585702661928 0  0.7660075594126428 1.865233039449035 0  0.6330293131838399 1.095171663968746 0  -1.201232463242587 2.144287146570887 0  -0.3926990816987241 0 0  -0.3926990816987241 3.048 0  1.178097245096172 3.048 0  0.7684409382397209 2.649499271873753 0  -1.236954997304436 1.7145 0  -0.1088573452899617 2.666651387486592 0  -1.570796326794897 1.143 0  -1.570796326794897 0.381 0  1.570796326794897 1.143 0  1.570796326794897 1.905 0  1.570796326794897 2.667 0  -1.570796326794897 2.667 0  -0.6730839067294777 1.743003792473746 0  1.199831389396789 2.275437921225198 0  0.3936837537618041 1.495643752599615 0  0.01539369169800942 1.928544709491661 0  0.4156551272669651 0.4219033286010089 0  0.3401546043708642 2.225103550856524 0  -0.3379897306391274 2.262671266279809 0  -1.23624174049596 0.7000907110925838 0  -1.265224057170889 1.360131453617764 0  -0.1224339018241312 1.210043725539656 0  1.289286200625578 0.9918698881707442 0  -0.7751142346211329 1.197848666814478 0  1.003546186550495 0.2660297686099683 0  0.1963495408493621 2.808538634159524 0  -0.8079023568959116 2.703551618159924 0  -0.3480226984353056 1.610059855391589 0  1.075147893506229 1.598068412087719 0  -0.8290627893979112 2.399544545867518 0  0.6965048925255637 0.7972100472372819 0  -1.257765094876752 0.3107645483825858 0  -0.6724835324263325 0.5684215760013651 0  -0.3995059642389676 0.7173610149075536 0  0.9136951972244611 1.187564504803626 0  -0.964259350608907 0.8095514380783081 0  -0.7565990314517038 0.2897049735129544 0  -0.9603859887840651 1.834914433810327 0  -0.1457055965762301 0.2521630699436873 0  0.1963495408493621 0.2041911848053476 0  0.6241974196550791 0.231695999252114 0  -0.4098815011312292 1.029160072548571 0  0.9592800715482012 2.452820690856482 0  0.9648684169153161 2.840751931000357 0  0.5890486225480862 3.048 0  0.164631037784102 1.698913854044779 0  0.5664480837073581 2.070920238540226 0  1.374107957806476 1.7145 0  0.9861079629544779 2.102471438422718 0  -1.374446785945534 3.048 0  -1.288827800789186 2.762781313597598 0  1.353232957571468 2.835634774483438 0  1.302158670506274 0.2650078124691045 0  0.1394669809465775 0.8907702620243092 0  -0.5631487221059602 2.830992231257464 0  1.372837635547072 2.483038902756259 0  -0.1493395228831287 0.618617259260858 0  -1.32327048447753 2.378769394323546 0  0.56080204725298 1.699622905297025 0  1.570796326794897 2.0955 0  0.5403456747786348 2.786446773498672 0  -0.9817477042468103 0 0  -0.5847039960246873 2.326882432521036 0  0.1225428891326576 2.526494255738436 0  -0.9817477042468103 3.048 0  -0.5522901559753841 2.071668786267058 0  -1.370864794258017 0.9075071715671403 0  -1.043891045637083 1.250611220450313 0  -0.1652643923634778 2.09141301924679 0  -1.044446740946883 2.764982067459552 0  -0.1610370079820225 1.763280243096074 0  -0.3136912237752232 2.810498886211121 0  0.5400974078002052 2.370472734822523 0  -0.7009161718414544 1.427243880175582 0  0.902907438200502 0.6735032943420574 0  -0.9879196222361604 0.2371379634274736 0  1.319268546233604 0.7412771512308228 0  0.5578373583610097 0.608241627784878 0  0.5756483102040615 1.332636919938113 0  -0.5281701577409 0.2032348774530744 0  -0.266729509930448 2.489223923247521 0  -1.570796326794897 0.5715 0  -0.2430656531629531 1.405631921096758 0  0.253622337931223 0.5884397663452474 0  1.284044721043478 1.50372037617638 0  1.570796326794897 1.3335 0  -0.9904333867980613 2.235882060371517 0  0.9871146764618406 1.395690276854986 0  -1.374446785945534 0 0  0.3981951765262902 1.020833864419675 0  0.1670583512016766 1.405384478716078 0  -1.330327693484763 1.938638984813805 0  0.2106653067452682 2.040805097078886 0  1.570796326794897 0.5715 0  1.334822181490566 2.081373939821734 0  -0.9303227889097604 1.033236710715967 0  -1.34639228476592 1.150776798768373 0  -1.570796326794897 0.1905 0  1.106697207481837 1.099709897393925 0  0.4137866939027022 0.2104288000383385 0  -1.570796326794897 2.0955 0  0.9761377489246634 0.4754251272674608 0  1.377108465632662 0.4605024587280874 0  1.108114944719677 0.7297638044096917 0  0.3695908229138113 1.285681859811955 0  0.9799112840676307 1.800306505551499 0  -0.001696842075803034 1.042028929293442 0  1.366537356420357 1.185723700290463 0  -1.385029840108318 0.47625 0  0.05842649915411911 0.6874537157920781 0  -1.183268988745763 0.4997334438341218 0  -0.6073502281622543 1.081347079085406 0  -1.026941765261019 2.031536576622642 0  -1.570796326794897 2.8575 0  0.8159726599830506 1.011928543199529 0  0.7652782693277244 2.849245002237192 0  -0.5252326280373281 1.520125074885265 0  0.7648326174724897 2.063743853392348 0  0.757099741434616 1.666331708950521 0  -0.1963495408493621 3.048 0  -0.005410422648647092 2.843333256403111 0  -1.395368347654653 2.19075 0  1.374446785945534 0 0  0.9817477042468103 3.048 0  0.1963495408493621 0 0  -0.1963495408493621 0 0  0.5890486225480862 0 0  0.1963495408493621 3.048 0  0.9817477042468103 0 0  1.374446785945534 3.048 0  -0.5890486225480862 3.048 0  -0.5890486225480862 0 0  -0.06865319188571758 2.471928549109083 0  1.159049337209348 2.838090892449816 0  0.5817075150535711 2.596909954318943 0  0.7656515661107315 2.455866896253367 0  0.9620790410056582 2.647119292933887 0  0.3676829480103987 1.68739481709134 0  -0.8886101495223063 2.878912500124773 0  -0.3317793704126089 0.1873756770788371 0  -1.383208664444332 2.577695923010364 0  -1.043597917648523 1.648216005744782 0  -1.362178343413552 1.546177620526679 0  -1.570796326794897 1.7145 0  -0.8462722504471433 1.648434957877788 0  -0.588076822054871 0.3899352838051667 0  1.570796326794897 2.8575 0  -1.570796326794897 0.9525 0  1.570796326794897 0.1905 0  1.570796326794897 1.7145 0  1.570796326794897 0.9525 0  -1.570796326794897 1.3335 0  1.570796326794897 2.4765 0  -1.570796326794897 2.4765 0  0.8103777117362174 0.287468585434799 0  -1.145334531235929 1.881885620422454 0  -0.8620560674467429 0.6361265362229395 0  -0.321688879263093 1.207848147265888 0  -0.7798551871678058 1.904240998338365 0  -0.4724954359209014 1.769587110195458 0  -0.667402576232105 2.495985359319255 0  0.5365063314111709 0.8945566719544227 0  0.1855702280441107 2.342745654422604 0  0.55510120733165 1.88540118775351 0  1.188295809121239 2.460939894898248 0  1.38587897409014 2.260870763688798 0  1.383978812419919 1.901097375082534 0  -0.2265735189171196 1.049795314962436 0  0.7387890113368257 1.246392780742437 0  0.5763234466275948 1.516457524623135 0  -0.203279258075353 0.4348372558382012 0  -1.179202350299698 1.523245956950107 0  -1.151844216720993 2.318990544544152 0  -1.410806081599612 0.6547540757597369 0  0.04190096621848406 2.108399609871347 0  0.5925649981629265 0.4343292987553075 0  0.2371113691258682 0.4102816185532077 0  1.334103818253725 2.657728219912091 0  0.9405077369493808 2.275181409651143 0  -0.633962040105568 2.669303984283053 0  -0.6045614816381242 1.904349918307267 0  1.159697673803787 2.079238591118184 0  -0.004643801590645341 1.347662554528907 0  0.3691400131247499 2.395423267764724 0  0.3855005143298051 2.055603978165229 0  0.01839821075864462 0.1788084577298442 0  -0.9568120219060965 2.61629404172056 0  0.1783135820912846 1.871116340262054 0  0.3649950158263953 2.745288921627024 0  -0.3142054567155264 0.5671999812317062 0  -0.4933549623779417 0.564740705097546 0  0.06092775470575962 2.685867440722903 0  -0.1801827362748675 2.337517890002858 0  -1.063355415037434 0.6386189748554 0  -1.205242865599393 0.8676070232612285 0  -0.4176020549597784 2.412196127179313 0  -0.3347051678178828 2.093252344225509 0  -1.427772711006951 0.2857500000000001 0  0.8835729338221293 0.1362887052191026 0  -0.6831011505337878 0.1389086130988801 0  -1.403875662049666 1.77648180985222 0  1.394165436236593 1.362588987767805 0  -0.5007942298153729 0.8700626692351643 0  -0.6093220848169366 0.7321530406295067 0  0.007534593095922887 1.760126887057542 0  -1.276272015520854 0.140425968067263 0  -0.7270478511000733 2.847016806985676 0  1.436331331726002 0.85725 0  -0.1770320080670663 1.927167796173981 0  0.7200726153501196 0.6345534912379586 0  -1.099983122078282 0.3577316115390257 0  0.2324759135153202 2.648405702327079 0  0.9054371869972004 1.582409569434113 0  0.5000672234640285 1.188708149930449 0  -0.340793734207542
[...]
<PointData  Vectors="phi"> 
<DataArray  type="Float64"  Name="phi"  NumberOfComponents="3" format="ascii">-1.2749972685697848e+00 3.0144386619456571e+00 1.8755364852718074e-04  -1.0160126773778460e+00 1.5084970589166227e-08 -9.1060873518539120e-06  1.0160127074059289e+00 -8.0994855861701469e-09 -1.0917838982289014e-05  1.2750722375771577e+00 3.0144182300380655e+00 1.4601549550495458e-04  -5.8126570726612053e-06 1.9586711202629402e-07 1.0160221061545716e+00  -5.5736390692918232e-04 2.6101547302613612e+00 -2.8956812234423152e-01  -1.0587183340226338e+00 1.5090757487284909e+00 -1.7119541406695629e-05  1.0588575218329861e+00 1.5090449292504244e+00 -2.4953079897440213e-05  -4.6736156382854749e-02 1.4379763390385740e+00 6.8776449682503682e-01  7.1842703535998431e-01 -1.7894193663277958e-07 7.1841672872417606e-01  6.7130166331527319e-01 2.2274951319405289e+00 4.9519704453533164e-01  -7.1842435002722405e-01 -3.1815963630978064e-07 7.1841890659821306e-01  -6.3209886090690925e-01 2.9033454800491532e+00 9.6659760810188872e-02  3.9436410218497131e-01 7.7956618887706908e-01 9.1684850935330076e-01  -1.0241016954737694e+00 7.5486777534676985e-01 -2.1563085997117983e-05  -7.3704336851102770e-01 2.0840778070852251e+00 5.6811470189614144e-01  -6.6075592221904311e-01 8.9311022246097227e-01 7.8729532432105231e-01  6.3173944157856565e-01 2.9028846734959224e+00 9.5341645237151246e-02  7.5481973409893488e-01 1.4711550272811618e+00 7.1364610783359883e-01  -4.0816137350832229e-04 2.0251877495378436e+00 2.0173973924261931e-01  -1.1700960177272364e+00 2.2584213498021626e+00 -5.0041170320824223e-06  1.0241189029310731e+00 7.5485810694467548e-01 -3.0573135727106969e-05  1.1704344606176760e+00 2.2583608200581544e+00 -5.3951201581404806e-05  -8.7323504392887130e-01 1.4708041939256680e+00 6.0470117928503586e-01  8.7121468428529569e-01 8.9637457239164042e-01 5.6880772375182687e-01  -3.9119811555768907e-01 4.0931870633188572e-01 9.2994918528026171e-01  1.0327133461840274e+00 1.8924156468128199e+00 3.9045039262310466e-01  3.4604385278287653e-01 1.7878614859458657e+00 5.5348254184392909e-01  -4.2852343922652492e-01 2.3859786014461641e+00 2.1258041051466167e-01  3.4425858969022616e-01 2.7349310539131890e+00 -1.2775824124806973e-01  9.3865693445733689e-01 -4.5178474329087793e-07 3.8880524600194794e-01  1.0138813264302866e+00 2.6270433252528171e+00 3.3573488738856322e-01  -9.8964784631764324e-01 3.0143239494082299e+00 2.2259016312573529e-01  -9.3865679548208025e-01 -2.7809389362684759e-07 3.8881443657712211e-01  -1.4193677743880356e-01 8.9369962675662051e-01 9.5847196708757287e-01  -9.7860513253258241e-01 2.5142951425625260e+00 3.8094074262481720e-01  -8.5562039221771202e-01 4.7170776234461398e-01 5.6804561631756378e-01  -3.2207669726840776e-01 1.8129240131061723e+00 5.1626277192742009e-01  -1.1065373577618720e+00 1.8841758025117932e+00 -2.3962457446611618e-05  -9.5735805869388013e-01 1.0237286824571044e+00 4.1264184906499368e-01  7.1418969847276259e-01 4.7581123756808930e-01 7.3645517247784709e-01  3.8881366703653197e-01 9.1252252011099425e-07 9.3866786196200291e-01  -4.8200568825309797e-01 1.3313838586077675e+00 8.4710537232707872e-01  6.4575901944358291e-02 4.5911829189091313e-01 9.8808763041916592e-01  2.0021046215704019e-01 1.1663961254899120e+00 9.1668496404700794e-01  3.5101639140995111e-01 2.3458490156822904e+00 1.5517961860756238e-01  1.0203381548380495e+00 3.7747740142688779e-01 -1.9581998067236257e-05  9.8312691015131515e-01 1.2859533518605355e+00 3.8219324175612984e-01  9.4909918322728914e-01 5.2675204503163808e-01 3.8925145698158969e-01  7.2060591802363827e-01 1.8631358233256654e+00 6.4709988395923546e-01  6.2376530404376551e-01 1.0988098314916910e+00 8.1125275275271558e-01  -1.0606749413178580e+00 2.1299240983162187e+00 3.6182509099219096e-01  -3.8880191929820285e-01 -2.4605211239942357e-07 9.3865653751949651e-01  -3.4508312560823939e-01 2.7352677796977565e+00 -1.2695564688059796e-01  9.8922661055650607e-01 3.0140926227616109e+00 2.2168836174884449e-01  6.4148855191312826e-01 2.5633377001497917e+00 3.0430520586826876e-01  -1.0348783999605122e+00 1.7010206291546091e+00 3.3580440291970165e-01  -1.0941295417838171e-01 2.3352322570769957e+00 -2.1338680864693579e-02  -1.0357554805963627e+00 1.1321457081633277e+00 -2.4884259273365582e-05  -1.0203501992805939e+00 3.7748183690825093e-01 -2.4484461824346616e-05  1.0358114862941346e+00 1.1321278837249173e+00 -1.1864671683915602e-05  1.1068674207352522e+00 1.8841063184802307e+00 -4.8072074289777390e-05  1.2300061950359644e+00 2.6350995933155184e+00 -4.7888337552717744e-05  -1.2294765066655267e+00 2.6351893352003541e+00 5.1630372886339899e-06  -6.4061264675391871e-01 1.7406109787137993e+00 6.9830882661662430e-01  1.0646296419998538e+00 2.2610076683499747e+00 3.5589999510322468e-01  3.8298081933185324e-01 1.4797844597887131e+00 7.8123050567247032e-01  1.5283439381209856e-02 1.7455072662101678e+00 4.2410857391640250e-01  4.1316913530057614e-01 4.2467805721647461e-01 9.2149575641980686e-01  3.1637874585344017e-01 2.0521891297544559e+00 3.3389748077087744e-01  -3.1496167160561517e-01 2.0813910329052474e+00 3.1059192874710995e-01  -9.7234491590986116e-01 6.9444317306968051e-01 3.3558624639844498e-01  -1.0098811469012767e+00 1.3491813851356289e+00 3.0796956530966996e-01  -1.2361786078620296e-01 1.2068255887360204e+00 8.9828388713020868e-01  9.9667660209237952e-01 9.8357793178576780e-01 2.8398126973741522e-01  -7.4481352154049929e-01 1.1988847358084518e+00 7.2632571526331591e-01  8.6202145317128742e-01 2.6442739848420388e-01 5.4786787061872722e-01  1.8860015958350504e-01 2.4697794365674155e+00 -8.0154432865930186e-02  -6.7197432582075967e-01 2.6224681446546381e+00 2.9323432476525929e-01  -3.3486737235938763e-01 1.5644081792262401e+00 7.0600529839613446e-01  9.6023697375862205e-01 1.5904411380868306e+00 4.8770655220498377e-01  -7.2096355556847913e-01 2.3642173045905626e+00 4.4777495595886668e-01  6.6961260049679949e-01 7.9817591721189551e-01 7.8010749015844716e-01  -9.7158583710867807e-01 3.0815813040625734e-01 3.1396723573979213e-01  -6.4442051741604633e-01 5.6903832899325912e-01 7.9632289838091752e-01  -4.0042315053747651e-01 7.2198591015490909e-01 9.1703718746936491e-01  8.4260778220913701e-01 1.1849114012199771e+00 6.2584580578094462e-01  -8.5703849730688442e-01 8.0605009883401380e-01 5.8457301449672339e-01  -7.0300086886291047e-01 2.8925589644106886e-01 7.4100114375359982e-01  -8.9831426678456860e-01 1.8327946076987482e+00 5.6881254260815517e-01  -1.4731460572304303e-01 2.5489085449739629e-01 9.9339899823675815e-01  1.9807383352199159e-01 2.0634612443644715e-01 9.8832659374625076e-01  5.9709366971830669e-01 2.3204315391625169e-01 8.2504600341569545e-01  -4.1436871491264454e-01 1.0352076312700298e+00 9.0255443189738405e-01  8.4371994012608442e-01 2.4337645060668347e+00 4.3425391826416149e-01  8.0264732368053160e-01 2.7855408594619435e+00 2.7596942754410664e-01  4.8650439403500506e-01 2.8200549982068472e+00 -1.4861882870936895e-02  1.6342778210485109e-01 1.5861910796264402e+00 5.9225608396107199e-01  5.0748469133801311e-01 2.0090307667483791e+00 5.2907797642388277e-01  1.0654607870265909e+00 1.6981721232196016e+00 1.9962583499171807e-01  9.0748039967192795e-01 2.0981898911821446e+00 5.1741704413118650e-01  -1.1803917869940119e+00 3.0216608310899691e+00 1.6753225918558268e-01  -1.1215791813195148e+00 2.7413558060780385e+00 2.4857409663078617e-01  1.1681093171680128e+00 2.8108840653012557e+00 1.9791159043801460e-01  9.8365052271971276e-01 2.6273003318751986e-01 2.7049850412254034e-01  1.4220901165547808e-01 8.9709718899260116e-01 9.5817772752288743e-01  -4.7289615896712356e-01 2.6333580231772360e+00 9.8049484637450599e-02  1.1642678057255367e+00 2.4581021269772330e+00 1.9615183295140817e-01  -1.5135222035943161e-01 6.2409476001094566e-01 9.7167729311281048e-01  -1.1346358700546917e+00 2.3568207440109710e+00 2.4449559041197905e-01  5.3199942712718984e-01 1.6869911958465358e+00 7.1177044673255518e-01  1.1382350243837476e+00 2.0710804916923804e+00 -2.0277992128163643e-05  4.5688076175773407e-01 2.5871124977532753e+00 1.1015558582844176e-01  -8.4477559457879881e-01 -1.7326611327883834e-09 5.6446291185511988e-01  -5.0858827794055517e-01 2.2286302821143260e+00 3.9734970087364807e-01  1.2186596478820166e-01 2.2269699092456570e+00 6.7808248927791956e-02  -7.9754863235231244e-01 2.9724621354463792e+00 1.8580180543813893e-01  -4.9547794817811375e-01 2.0052348178387978e+00 5.2358562729846125e-01  -1.0105964197334427e+00 8.9943036314425562e-01 2.0265519708889471e-01  -9.1999937134964460e-01 1.2446348622056833e+00 5.1645119427019659e-01  -1.6394327581809942e-01 1.8924147235510027e+00 3.4688211035574629e-01  -8.8999899241011937e-01 2.7334510760249384e+00 3.2082668760672572e-01  -1.6032789004900910e-01 1.6351194224041703e+00 5.5066656591279051e-01  -2.8724548171081338e-01 2.5129652714826181e+00 -2.7192989396451730e-02  4.7052458298513911e-01 2.2474152428186174e+00 3.4986122874592707e-01  -6.8774386702948076e-01 1.4316974769400783e+00 7.5862759685373238e-01  8.1535217447264774e-01 6.7111148585473679e-01 6.3432382855044211e-01  -8.5267649945699442e-01 2.3575876250423314e-01 5.6097151627353314e-01  9.9555728200526927e-01 7.3487022536436497e-01 2.5407932955363383e-01  5.4691502417131921e-01 6.1051875327976124e-01 8.5792671677807231e-01  5.7327699701138068e-01 1.3384654024424802e+00 8.2104439986217315e-01  -5.1402723980958576e-01 2.0401918010462750e-01 8.7685530018326063e-01  -2.5397244441880418e-01 2.2368477607861528e+00 1.4119808841466538e-01  -1.0213440052981384e+00 5.6618049822425154e-01 -1.5449827455069792e-05  -2.4020976043536232e-01 1.3791306289048251e+00 8.0107101295500183e-01  2.5594902120399826e-01 5.9336955260747026e-01 9.5832520838429902e-01  1.0260057416777415e+00 1.4911872785673648e+00 2.8951642463748611e-01  1.0450429114965454e+00 1.3206914800978424e+00 -1.4841692170779547e-05  -9.0010357619195691e-01 2.2288857527614740e+00 4.8952355075089543e-01  8.9895346792239395e-01 1.3911491957933042e+00 5.6532609600370265e-01  -9.9647421212996201e-01 -6.9267156221507778e-07 1.9820650222013689e-01  4.0278628155370377e-01 1.0269298861723763e+00 9.0609023262753352e-01  1.6604008048023305e-01 1.3662088692343834e+00 7.8576787035604245e-01  -1.0866105863858753e+00 1.9201989432033140e+00 2.4327159426252848e-01  2.0552519215525905e-01 1.8640994025076247e+00 3.9246772210977748e-01  1.0213498974025439e+00 5.6617211607596374e-01 -2.7407469465564897e-05  1.1068373335642130e+00 2.0610881467475486e+00 2.3802245108692560e-01  -8.4580263908919906e-01 1.0300835390176761e+00 6.1280352836637741e-01  -1.0156809116091201e+00 1.1407044920509204e+00 2.2724178385034946e-01  -1.0186900380131234e+00 1.8878536567605342e-01 -3.3228854803452882e-05  9.4074165597799875e-01 1.0929783550430381e+00 4.5936522781392752e-01  4.0960781219839920e-01 2.1183440055803759e-01 9.2712970806085826e-01  -1.1377114519613631e+00 2.0711746911456785e+00 -3.1492024475367089e-05  8.5253920160764729e-01 4.7289233617889836e-01 5.7282567271939377e-01  1.0026985310564267e+00 4.5637561555212469e-01 1.9624155413509456e-01  9.2619448733824639e-01 7.2486505012909874e-01 4.5715064964397639e-01  3.7064851986776864e-01 1.2885889171726588e+00 8.7085423812764329e-01  9.1288199240190915e-01 1.7972482576321533e+00 5.5814419950254734e-01  -1.7837098757630420e-03 1.0473014947766985e+00 9.5014984118806178e-01  1.0209442726212887e+00 1.1751689462436021e+00 2.0705329495510827e-01  -1.0042783728706615e+00 4.7197496772861380e-01 1.8829339736298517e-01  5.9337509027624212e-02 6.9338634397238830e-01 9.7390779172515862e-01  -9.4963115855543223e-01 4.9584283595303291e-01 3.8597354001005169e-01  -6.0076980673786873e-01 1.0853478027129326e+00 8.2458956746669343e-01  -9.4536158840930073e-01 2.0265058889553647e+00 5.0434326796346518e-01  -1.2535194098876530e+00 2.8247763010296127e+00 6.4002012046123649e-05  7.6832090411534570e-01 1.0112532108678305e+00 6.9988428024682825e-01  6.2628439035917793e-01 2.7296599379745841e+00 1.9456787459510022e-01  -5.1243657358142747e-01 1.5189322416800988e+00 7.8343428737105592e-01  6.9662903172297941e-01 2.0490423341452204e+00 5.7936132253751138e-01  7.2948298596110572e-01 1.6694158984531049e+00 6.9832651987496408e-01  -1.8847540157372480e-01 2.6580491006148184e+00 -2.2779879900130676e-01  -6.0265998793039089e-03 2.4632762665873349e+00 -1.4431873229831241e-01  -1.1358618044457596e+00 2.1673180263047973e+00 1.7745132125293683e-01  9.9647565696610330e-01 -7.1897308251596609e-07 1.9820947434960492e-01  7.9714212767388937e-01 2.9720990217275092e+00 1.8446312320416330e-01  1.9820790843718128e-01 1.6439267737099382e-06 9.9649251199294842e-01  -1.9821652209213661e-01 5.0637569034350346e-07 9.9648285199996833e-01  5.6445640463137536e-01 1.4660771167745017e-07 8.4477757559912159e-01  1.8740881276414789e-01 2.6578352782166892e+00 -2.2834737793807239e-01  8.4477861503698393e-01 -1.4493903110175018e-07 5.6446235810922540e-01  1.1802119593432583e+00 3.0217629884339283e+00 1.6721000529709357e-01  -4.8707998001398251e-01 2.8204212129722022e+00 -1.3845275505940436e-02  -5.6446377677791426e-01 -1.2064246824633016e-07 8.4477098683471463e-01  -6.9782118637130811e-02 2.1759112029760703e+00 9.1339826641549896e-02  9.9546937216936215e-01 2.8136939017309865e+00 2.8619947721945077e-01  4.9412293604906049e-01 2.4493923380958629e+00 2.4200261460833172e-01  6.5490786522850830e-01 2.3973375623420980e+00 4.0331197524137252e-01  8.2202121021210828e-01 2.6124721994968394e+00 3.6073371144453947e-01  3.5004480138017452e-01 1.6319649980015629e+00 6.6688253895303129e-01  -7.2925584310043123e-01 2.7975576402576738e+00 2.3401121793083565e-01  -3.3132676993395466e-01 1.8895508222208363e-01 9.5620588617213409e-01  -1.1763087993671728e+00 2.5519226968752688e+00 1.8467037552503870e-01  -9.4721759739307709e-01 1.6418172265482736e+00 5.1448922125891861e-01  -1.0449780273352076e+00 1.5321357581280297e+00 2.1154495383156718e-01  -1.0793168100098589e+00 1.6969343967639736e+00 -3.3916761343866171e-05  -8.0982310867261087e-01 1.6500092320934183e+00 6.5846756300244680e-01  -5.6956600435338012e-01 3.9098087352880850e-01 8.4508136921620980e-01  1.2541764790376262e+00 2.8246556215476133e+00 -1.2377008186496052e-05  -1.0289798254567151e+00 9.4352351107855059e-01 -1.7183935486798450e-05  1.0186754594473730e+00 1.8878362280509992e-01 -2.9249616736954279e-05  1.0795715902567913e+00 1.6968849786302072e+00 -1.8300383451069475e-05  1.0290143960798961e+00 9.4350980541507157e-01 -4.8595553354650389e-05  -1.0449686378839802e+00 1.3207120358004318e+00 -3.1891797465269191e-05  1.2016548031735197e+00 2.4463153036762022e+00 -2.2505088169284139e-05  -1.2011711534188769e+00 2.4463978161019893e+00 4.8758458453660929e-06  7.4189145525359468e-01 2.8669250144579073e-01 7.0263947637904778e-01  -1.0159099969723600e+00 1.8708996128812279e+00 4.2010233328696289e-01  -7.8762635713972695e-01 6.3430417770863223e-01 6.6613897058260407e-01  -3.2532822681464163e-01 1.2123543485175248e+00 8.9741592117025293e-01  -7.3059513168045220e-01 1.9012770599388547e+00 6.3378556182405887e-01  -4.4221796433477245e-01 1.7286822411151894e+00 6.5733995337552087e-01  -5.6695270300752509e-01 2.3994235503170294e+00 3.4307735291606600e-01  5.3241069376833794e-01 8.9857865289685501e-01 8.6134031519985110e-01  1.8185900250284856e-01 2.0957500190495959e+00 1.9839684691456339e-01  5.1056861604330672e-01 1.8484393317286854e+00 6.2220511862158467e-01  1.0548012989714650e+00 2.4463211291466482e+00 3.4778274997560832e-01  1.1434935115020886e+00 2.2369241550544694e+00 1.8634613351300469e-01  1.0921016639929200e+00 1.8819033959023610e+00 1.8968892182830255e-01  -2.3129936792068051e-01 1.0558691585947635e+00 9.3735005849570097e-01  7.1762196516235222e-01 1.2486917009548093e+00 7.4823108081188483e-01  5.6391422598794294e-01 1.5188397758822567e+00 7.8031600308285753e-01  -2.0523908048452347e-01 4.3896758198101204e-01 9.7516189967696898e-01  -9.9726683735100474e-01 1.5127438211525066e+00 3.9173029827119488e-01  -1.0319964575125389e+00 2.3069791077044548e+00 3.8853954781090499e-01  -1.0106842260734223e+00 6.4881816954003191e-01 1.6238204318672839e-01  4.2005118948489725e-02 1.8872893497296235e+00 3.1295057345497473e-01  5.7431476796496184e-01 4.3548613714028489e-01 8.4239777446023767e-01  2.3896046491410031e-01 4.1409157554340653e-01 9.7048433507321863e-01  1.1548099720463945e+00 2.6344091628519970e+00 2.2418596565317811e-01  8.4707422897196138e-01 2.2648818013183845e+00 4.9345121109308948e-01  -5.3161503161702117e-01 2.5301871204651913e+00 2.2952382602267032e-01  -5.5617806168457307e-01 1.8767888019234418e+00 6.2661217949618464e-01  1.0350515938085014e+00 2.0672120757834547e+00 4.0017500437149683e-01  -4.7780205662735576e-03 1.3108875316924782e+00 8.0974577423309158e-01  3.3760871720815411e-01 2.1994270656864230e+00 2.4605685352656101e-01  3.5588350977545385e-01 1.9335523509566879e+00 4.5705256776983055e-01  1.8647951897773792e-02 1.8091723457148629e-01 1.0070064322173762e+00  -8.2086260519915055e-01 2.5838385075272878e+00 3.7385463148300008e-01  1.7594779698951052e-01 1.7228236132146699e+00 4.8747466708954662e-01  3.2794674732155898e-01 2.4801091010294631e+00 3.7002377619678596e-02  -3.1595542535837845e-01 5.7165300359556526e-01 9.4650555067130626e-01  -4.8766776487744073e-01 5.6756557059089385e-01 8.8781834542884408e-01  6.1010386387718343e-02 2.3433018621387065e+00 -4.2069030913794020e-02  -1.7769001367678369e-01 2.0902863040191471e+00 2.0005605525508777e-01  -9.0287302588485352e-01 6.3460976149338166e-01 4.9752124670821302e-01  -9.6786635211752214e-01 8.6096999226638060e-01 3.6588630032799868e-01  -3.7579030305548222e-01 2.2322158356203872e+00 2.6162920539408169e-01  -3.1392131403195978e-01 1.9452510311573146e+00 4.1123799267184624e-01  -1.0096117959227737e+00 2.8317717719033292e-01 1.4526647313926783e-01  7.8736222509317888e-01 1.3571161697677597e-01 6.4538264447694504e-01  -6.4306185548111172e-01 1.3889356892099675e-01 7.8858365862071622e-01  -1.0773291898825661e+00 1.7589194736787663e+00 1.6965935418345232e-01  1.0350682106348603e+00 1.3501464543360873e+00 1.7923819090913221e-01  -4.9888746470711243e-01 8.7441516872433023e-01 8.7678768964607567e-01  -5.9461274076193038e-01 7.3425792734439255e-01 8.3013754318364608e-01  7.3761712768162938e-03 1.6147344529749137e+00 5.3077120351728480e-01  -9.7416911508938686e-01 1.3926126337337810e-01 2.9536828614476940e-01  -5.9619612217624951e-01 2.7135869068708174e+00 1.7782370336384659e-01  1.0185608195866005e+00 8.4937773232525593e-01 1.3666144007530340e-01  -1.7521634655469065e-01 1.7663473416723481e+00 4.5232769872659967e-01  6.8427838951075526e-01 6.3468286400288687e-01 7.6646396278947493e-01  -9.1232745188489306e-01 3.5518745330321416e-01 4.6298981701037956e-01  2.2229194932398322e-01 2.3527234580360310e+00 3.0423411903184421e-02  8.5562481909507948e-01 1.5814989512313222e+00 6.2495959997880279e-01  5.0273061349805237e-01 1.1947855686266198e+00 8.6344665930756215e-01  -3.1235315930837487e-01 2.3873002460279680e+00 8.5259459782661820e-02  8.3671862464612023e-01 1.9638983656646531e+00 5.8412444801853003e-01  1.0000226633392026e+00 1.7389250566283279e+00 4.3329806288233186e-01  -7.4465968323717402e-01 4.5610756789981810e-01 7.0599155686020421e-01  2.1309584244078911e-01 7.5064391443798406e-01 9.5734080996434356e-01  -5.9285522239782507e-01 2.1382762834699554e+00 5.0756517675957802e-01  -6.1515784239603855e-01 1.2471527109190692e+00 8.1213423591902256e-01  -7.3152870049307206e-01 1.0340797614654955e+00 7.3418902088506632e-01  -7.9951578822408820e-01 1.3454588020936169e+00 6.7985017709865414e-01  9.4617908544535378e-01 9.3646107145985957e-01 4.3071215616668268e-01  -9.7718882256435058e-01 1.1785362267481871e+00 3.8036062141467386e-01  8.9772684833045235e-01 1.2499779388558810e-01 4.7953761213064400e-01  9.1737728329295720e-01 3.8364453405597376e-01 4.5418074114589152e-01  -6.5307903038039461e-01 1.5874107646604365e+00 7.4401100029688694e-01  9.7481969916900502e-01 1.4427901464704631e+00 4.3366674650438231e-01  -9.0089491012338785e-01 2.3851