<?xml version="1.0"?>
<VTKFile type="UnstructuredGrid"  version="0.1"  >
<UnstructuredGrid>
<Piece  NumberOfPoints="758" NumberOfCells="1386">
<Points>
<DataArray  type="Float64"  NumberOfComponents="3"  format="ascii">-1.570796326794897 3.048 0  -1.570796326794897 0 0  1.570796326794897 0 0  1.570796326794897 3.048 0  0 0 0  0 3.048 0  -1.570796326794897 1.524 0  1.570796326794897 1.524 0  -0.04609926118424437 1.524 0  0.7853981633974483 0 0  0.7623485328053261 2.262242601661362 0  -0.7853981633974483 0 0  -0.7853981633974483 3.048 0  0.392699081698724 0.7745759241961347 0  -1.570796326794897 0.762 0  -0.8084477939895706 2.0955 0  -0.68277245543452 0.8915343570675713 0  0.7853981633974483 3.048 0  0.778743707341909 1.468410948960538 0  2.780093748954961e-16 2.285302774973185 0  -1.570796326794897 2.286 0  1.570796326794897 0.762 0  1.570796326794897 2.286 0  -0.9375370967763674 1.47348297960658 0  0.9831575747762593 0.9003629142671278 0  -0.3926990816987241 0.4064697549061488 0  1.177419588818055 1.905 0  0.3692901340097942 1.880893989147954 0  -0.4920225169641509 2.564371687128368 0  0.3926990816987241 3.048 0  1.178097245096172 0 0  1.155705348811136 2.643920532523289 0  -1.178097245096172 3.048 0  -1.178097245096172 0 0  -0.1391296372266528 0.8873724190154949 0  -1.10527745318919 2.528282743051346 0  -0.9817477042468103 0.4742759268549471 0  -0.3416666987802651 1.923944646262223 0  -1.570796326794897 1.905 0  -1.156555306160469 1.030861936336814 0  0.7648449098493205 0.4764142032227 0  0.3926990816987241 0 0  -0.4820376416180818 1.326151321396512 0  0.06374421723344185 0.4545169930886408 0  0.1972735722393064 1.163324878565267 0  0.3900417218314142 2.566922767651637 0  1.570796326794897 0.381 0  1.188877612935585 1.295195418509834 0  1.179914028402171 0.5308585702661928 0  0.7660075594126428 1.865233039449035 0  0.6330293131838399 1.095171663968746 0  -1.201232463242587 2.144287146570887 0  -0.3926990816987241 0 0  -0.3926990816987241 3.048 0  1.178097245096172 3.048 0  0.7684409382397209 2.649499271873753 0  -1.236954997304436 1.7145 0  -0.1088573452899617 2.666651387486592 0  -1.570796326794897 1.143 0  -1.570796326794897 0.381 0  1.570796326794897 1.143 0  1.570796326794897 1.905 0  1.570796326794897 2.667 0  -1.570796326794897 2.667 0  -0.6730839067294777 1.743003792473746 0  1.199831389396789 2.275437921225198 0  0.3936837537618041 1.495643752599615 0  0.01539369169800942 1.928544709491661 0  0.4156551272669651 0.4219033286010089 0  0.3401546043708642 2.225103550856524 0  -0.3379897306391274 2.262671266279809 0  -1.23624174049596 0.7000907110925838 0  -1.265224057170889 1.360131453617764 0  -0.1224339018241312 1.210043725539656 0  1.289286200625578 0.9918698881707442 0  -0.7751142346211329 1.197848666814478 0  1.003546186550495 0.2660297686099683 0  0.1963495408493621 2.808538634159524 0  -0.8079023568959116 2.703551618159924 0  -0.3480226984353056 1.610059855391589 0  1.075147893506229 1.598068412087719 0  -0.8290627893979112 2.399544545867518 0  0.6965048925255637 0.7972100472372819 0  -1.257765094876752 0.3107645483825858 0  -0.6724835324263325 0.5684215760013651 0  -0.3995059642389676 0.7173610149075536 0  0.9136951972244611 1.187564504803626 0  -0.964259350608907 0.8095514380783081 0  -0.7565990314517038 0.2897049735129544 0  -0.9603859887840651 1.834914433810327 0  -0.1457055965762301 0.2521630699436873 0  0.1963495408493621 0.2041911848053476 0  0.6241974196550791 0.231695999252114 0  -0.4098815011312292 1.029160072548571 0  0.9592800715482012 2.452820690856482 0  0.9648684169153161 2.840751931000357 0  0.5890486225480862 3.048 0  0.164631037784102 1.698913854044779 0  0.5664480837073581 2.070920238540226 0  1.374107957806476 1.7145 0  0.9861079629544779 2.102471438422718 0  -1.374446785945534 3.048 0  -1.288827800789186 2.762781313597598 0  1.353232957571468 2.835634774483438 0  1.302158670506274 0.2650078124691045 0  0.1394669809465775 0.8907702620243092 0  -0.5631487221059602 2.830992231257464 0  1.372837635547072 2.483038902756259 0  -0.1493395228831287 0.618617259260858 0  -1.32327048447753 2.378769394323546 0  0.56080204725298 1.699622905297025 0  1.570796326794897 2.0955 0  0.5403456747786348 2.786446773498672 0  -0.9817477042468103 0 0  -0.5847039960246873 2.326882432521036 0  0.1225428891326576 2.526494255738436 0  -0.9817477042468103 3.048 0  -0.5522901559753841 2.071668786267058 0  -1.370864794258017 0.9075071715671403 0  -1.043891045637083 1.250611220450313 0  -0.1652643923634778 2.09141301924679 0  -1.044446740946883 2.764982067459552 0  -0.1610370079820225 1.763280243096074 0  -0.3136912237752232 2.810498886211121 0  0.5400974078002052 2.370472734822523 0  -0.7009161718414544 1.427243880175582 0  0.902907438200502 0.6735032943420574 0  -0.9879196222361604 0.2371379634274736 0  1.319268546233604 0.7412771512308228 0  0.5578373583610097 0.608241627784878 0  0.5756483102040615 1.332636919938113 0  -0.5281701577409 0.2032348774530744 0  -0.266729509930448 2.489223923247521 0  -1.570796326794897 0.5715 0  -0.2430656531629531 1.405631921096758 0  0.253622337931223 0.5884397663452474 0  1.284044721043478 1.50372037617638 0  1.570796326794897 1.3335 0  -0.9904333867980613 2.235882060371517 0  0.9871146764618406 1.395690276854986 0  -1.374446785945534 0 0  0.3981951765262902 1.020833864419675 0  0.1670583512016766 1.405384478716078 0  -1.330327693484763 1.938638984813805 0  0.2106653067452682 2.040805097078886 0  1.570796326794897 0.5715 0  1.334822181490566 2.081373939821734 0  -0.9303227889097604 1.033236710715967 0  -1.34639228476592 1.150776798768373 0  -1.570796326794897 0.1905 0  1.106697207481837 1.099709897393925 0  0.4137866939027022 0.2104288000383385 0  -1.570796326794897 2.0955 0  0.9761377489246634 0.4754251272674608 0  1.377108465632662 0.4605024587280874 0  1.108114944719677 0.7297638044096917 0  0.3695908229138113 1.285681859811955 0  0.9799112840676307 1.800306505551499 0  -0.001696842075803034 1.042028929293442 0  1.366537356420357 1.185723700290463 0  -1.385029840108318 0.47625 0  0.05842649915411911 0.6874537157920781 0  -1.183268988745763 0.4997334438341218 0  -0.6073502281622543 1.081347079085406 0  -1.026941765261019 2.031536576622642 0  -1.570796326794897 2.8575 0  0.8159726599830506 1.011928543199529 0  0.7652782693277244 2.849245002237192 0  -0.5252326280373281 1.520125074885265 0  0.7648326174724897 2.063743853392348 0  0.757099741434616 1.666331708950521 0  -0.1963495408493621 3.048 0  -0.005410422648647092 2.843333256403111 0  -1.395368347654653 2.19075 0  1.374446785945534 0 0  0.9817477042468103 3.048 0  0.1963495408493621 0 0  -0.1963495408493621 0 0  0.5890486225480862 0 0  0.1963495408493621 3.048 0  0.9817477042468103 0 0  1.374446785945534 3.048 0  -0.5890486225480862 3.048 0  -0.5890486225480862 0 0  -0.06865319188571758 2.471928549109083 0  1.159049337209348 2.838090892449816 0  0.5817075150535711 2.596909954318943 0  0.7656515661107315 2.455866896253367 0  0.9620790410056582 2.647119292933887 0  0.3676829480103987 1.68739481709134 0  -0.8886101495223063 2.878912500124773 0  -0.3317793704126089 0.1873756770788371 0  -1.383208664444332 2.577695923010364 0  -1.043597917648523 1.648216005744782 0  -1.362178343413552 1.546177620526679 0  -1.570796326794897 1.7145 0  -0.8462722504471433 1.648434957877788 0  -0.588076822054871 0.3899352838051667 0  1.570796326794897 2.8575 0  -1.570796326794897 0.9525 0  1.570796326794897 0.1905 0  1.570796326794897 1.7145 0  1.570796326794897 0.9525 0  -1.570796326794897 1.3335 0  1.570796326794897 2.4765 0  -1.570796326794897 2.4765 0  0.8103777117362174 0.287468585434799 0  -1.145334531235929 1.881885620422454 0  -0.8620560674467429 0.6361265362229395 0  -0.321688879263093 1.207848147265888 0  -0.7798551871678058 1.904240998338365 0  -0.4724954359209014 1.769587110195458 0  -0.667402576232105 2.495985359319255 0  0.5365063314111709 0.8945566719544227 0  0.1855702280441107 2.342745654422604 0  0.55510120733165 1.88540118775351 0  1.188295809121239 2.460939894898248 0  1.38587897409014 2.260870763688798 0  1.383978812419919 1.901097375082534 0  -0.2265735189171196 1.049795314962436 0  0.7387890113368257 1.246392780742437 0  0.5763234466275948 1.516457524623135 0  -0.203279258075353 0.4348372558382012 0  -1.179202350299698 1.523245956950107 0  -1.151844216720993 2.318990544544152 0  -1.410806081599612 0.6547540757597369 0  0.04190096621848406 2.108399609871347 0  0.5925649981629265 0.4343292987553075 0  0.2371113691258682 0.4102816185532077 0  1.334103818253725 2.657728219912091 0  0.9405077369493808 2.275181409651143 0  -0.633962040105568 2.669303984283053 0  -0.6045614816381242 1.904349918307267 0  1.159697673803787 2.079238591118184 0  -0.004643801590645341 1.347662554528907 0  0.3691400131247499 2.395423267764724 0  0.3855005143298051 2.055603978165229 0  0.01839821075864462 0.1788084577298442 0  -0.9568120219060965 2.61629404172056 0  0.1783135820912846 1.871116340262054 0  0.3649950158263953 2.745288921627024 0  -0.3142054567155264 0.5671999812317062 0  -0.4933549623779417 0.564740705097546 0  0.06092775470575962 2.685867440722903 0  -0.1801827362748675 2.337517890002858 0  -1.063355415037434 0.6386189748554 0  -1.205242865599393 0.8676070232612285 0  -0.4176020549597784 2.412196127179313 0  -0.3347051678178828 2.093252344225509 0  -1.427772711006951 0.2857500000000001 0  0.8835729338221293 0.1362887052191026 0  -0.6831011505337878 0.1389086130988801 0  -1.403875662049666 1.77648180985222 0  1.394165436236593 1.362588987767805 0  -0.5007942298153729 0.8700626692351643 0  -0.6093220848169366 0.7321530406295067 0  0.007534593095922887 1.760126887057542 0  -1.276272015520854 0.140425968067263 0  -0.7270478511000733 2.847016806985676 0  1.436331331726002 0.85725 0  -0.1770320080670663 1.927167796173981 0  0.7200726153501196 0.6345534912379586 0  -1.099983122078282 0.3577316115390257 0  0.2324759135153202 2.648405702327079 0  0.9054371869972004 1.582409569434113 0  0.5000672234640285 1.188708149930449 0  -0.340793734207542
[...]
<PointData  Vectors="phi"> 
<DataArray  type="Float64"  Name="phi"  NumberOfComponents="3" format="ascii">-1.2686494711757261e+00 3.0122371293938999e+00 8.3848534835704886e-05  -1.0160128292816695e+00 -1.9969223970896511e-08 -9.0368929137108282e-06  1.0160128598156137e+00 -3.5776625676437017e-08 -1.0850193211400798e-05  1.2688346355496194e+00 3.0121953043301297e+00 6.3762669486944063e-05  -5.8361079013399758e-06 1.3079507374610662e-07 1.0160216155905419e+00  -1.8083242953266683e-04 2.6808369039429576e+00 -1.4733589831765129e-01  -1.0570324312188626e+00 1.5090806256657607e+00 -1.7459569594271119e-05  1.0571633558886588e+00 1.5090541212395148e+00 -2.5249738729228083e-05  -4.6306297679534869e-02 1.4996681397753018e+00 8.1757735991318037e-01  7.1842706691553582e-01 -1.2960369135960561e-07 7.1841680414450848e-01  7.0245409405551140e-01 2.2484691964115622e+00 5.7628241728994611e-01  -7.1842441144376845e-01 -3.8378063248200942e-07 7.1841902818043457e-01  -6.5421328928826095e-01 2.9483933015824211e+00 2.2231338813366133e-01  3.9356151431524838e-01 7.7976336233216370e-01 9.1628241141111499e-01  -1.0245941147081683e+00 7.5472724409326930e-01 -2.1462261734711662e-05  -7.6595426664107824e-01 2.0941254418592492e+00 6.2439187544474140e-01  -6.5976355094159012e-01 8.9274779679769667e-01 7.8675050214446518e-01  6.5419046472990960e-01 2.9481380290837667e+00 2.2147629601462107e-01  7.5448704023229107e-01 1.4697677945150489e+00 7.1770796678348947e-01  -1.7079149965866701e-04 2.0847006578515566e+00 3.3015602755939361e-01  -1.1505354000846890e+00 2.2597548904205071e+00 -1.5087346289616783e-05  1.0246194630715282e+00 7.5471660942010277e-01 -3.0602406686511157e-05  1.1507571076809118e+00 2.2597154468213643e+00 -5.1370387045173958e-05  -8.6891049191541636e-01 1.4697207413112741e+00 6.0435266808507060e-01  8.7057608872694481e-01 8.9602588627894297e-01 5.6852483524459196e-01  -3.9084978918961705e-01 4.0942732587063324e-01 9.3005589467710581e-01  1.0246325622733048e+00 1.8919113065700908e+00 3.9186944061614681e-01  3.5434578273967204e-01 1.8322506540518808e+00 6.6510993769226401e-01  -4.3866540617691113e-01 2.4356103038197738e+00 3.3553405270079512e-01  3.4987847374818870e-01 2.7963858396287518e+00 9.4485440631109138e-03  9.3865684734061960e-01 -4.4198851811060252e-07 3.8880529078112647e-01  1.0420244641734435e+00 2.6296389521482686e+00 3.6981291870335992e-01  -1.0315676549067341e+00 3.0256800879188051e+00 2.8716945476838390e-01  -9.3865650825524127e-01 -3.3220141629106453e-07 3.8881434923428038e-01  -1.4127650498404806e-01 8.9467081730948916e-01 9.5599010036498777e-01  -1.0060275181070928e+00 2.5170881172357431e+00 4.1565822725082369e-01  -8.5515960294850102e-01 4.7159429882577691e-01 5.6776499942471614e-01  -3.2831825224541311e-01 1.8597527268079319e+00 6.3067608256832586e-01  -1.0933461884226596e+00 1.8852869838606701e+00 -2.3767201949899858e-05  -9.5687697698164254e-01 1.0234454528561285e+00 4.1246678796080893e-01  7.1354695614362784e-01 4.7572158932357667e-01 7.3607319814484806e-01  3.8881367836303016e-01 8.5958490116390528e-07 9.3866754062115909e-01  -4.8611135914749903e-01 1.3328594093647315e+00 8.6378274246827746e-01  6.4534157911737236e-02 4.5947009683033807e-01 9.8907191416354567e-01  2.0129474175863901e-01 1.1708534996764790e+00 9.3403906071882847e-01  3.5690273048388377e-01 2.4001910358722331e+00 2.8218836162313238e-01  1.0207591830217861e+00 3.7738239937111151e-01 -1.9596351276658410e-05  9.8118293471129192e-01 1.2856729153183264e+00 3.8180613012044790e-01  9.4898713418450553e-01 5.2662390693576799e-01 3.8912350600647483e-01  7.4228455706494945e-01 1.8680854188149227e+00 6.8829209645739842e-01  6.2162629942581649e-01 1.0982221644400703e+00 8.0972160155176165e-01  -1.0568649417313261e+00 2.1290334051230726e+00 3.6663928273685753e-01  -3.8880198343571898e-01 -1.8485148726388341e-07 9.3865656894938676e-01  -3.5012731378024836e-01 2.7965902582693301e+00 9.9493786760399237e-03  1.0315773704555986e+00 3.0255806666642400e+00 2.8689605804453322e-01  6.6942353157641488e-01 2.5976248161174138e+00 4.1114145392246726e-01  -1.0263172443802027e+00 1.7010639639509253e+00 3.3539290950537048e-01  -1.0928770741001952e-01 2.3985565369040991e+00 1.1236883490391893e-01  -1.0364500617613754e+00 1.1319915204090101e+00 -2.5126871781827503e-05  -1.0207676762235380e+00 3.7738736053168842e-01 -2.4525783163257722e-05  1.0365323351186706e+00 1.1319727048281332e+00 -1.1667725892391538e-05  1.0935473226781298e+00 1.8852440191640429e+00 -4.8621348622330922e-05  1.2139883456597944e+00 2.6347951093747137e+00 -3.7479818814792131e-05  -1.2135747565029078e+00 2.6348776110373295e+00 -5.8325294338357962e-06  -6.6063869506524087e-01 1.7474291050126105e+00 7.4394596447246208e-01  1.0666553427690724e+00 2.2598687591798599e+00 3.6439315136864592e-01  3.9537931796365161e-01 1.4998958291255748e+00 8.5359721493850838e-01  1.5470872866615521e-02 1.8025035819723889e+00 5.4928492833659537e-01  4.1278969044906055e-01 4.2477543236990695e-01 9.2156256902560685e-01  3.2127957860606021e-01 2.1036938421466247e+00 4.5533913489332239e-01  -3.1934147210186903e-01 2.1332758489082106e+00 4.3243233970308170e-01  -9.7233341673554219e-01 6.9427804568479790e-01 3.3549065182192556e-01  -1.0079886422937629e+00 1.3489918101564158e+00 3.0773006666353320e-01  -1.2522716921562826e-01 1.2172055020885508e+00 9.3585723199329773e-01  9.9669110530260652e-01 9.8337780740709357e-01 2.8392384580902919e-01  -7.4224595129491033e-01 1.1980568219003969e+00 7.2515988006316967e-01  8.6179209291415648e-01 2.6437915657718464e-01 5.4773078233620121e-01  1.9000802276715831e-01 2.5333497278969794e+00 5.5281277881544119e-02  -7.0161380350335445e-01 2.6551359391325833e+00 3.9811170781600280e-01  -3.4419979061271644e-01 1.6012859865868547e+00 8.0668472528063651e-01  9.5384588757771271e-01 1.5897662606790237e+00 4.8720663910349893e-01  -7.5451994720435289e-01 2.3840306059031859e+00 5.2747046969208755e-01  6.6883200930779629e-01 7.9789914210620805e-01 7.7975480286367616e-01  -9.7166510981142062e-01 3.0808536702019346e-01 3.1393727639998970e-01  -6.4375090420603742e-01 5.6893789979985043e-01 7.9598482506747714e-01  -3.9976753711895435e-01 7.2216332894513058e-01 9.1680783506543984e-01  8.4033401097720106e-01 1.1842520240519261e+00 6.2497639093273571e-01  -8.5645620155389024e-01 8.0575396401098864e-01 5.8428559148542214e-01  -7.0256843610505215e-01 2.8922798622600621e-01 7.4073712200041675e-01  -9.0230929155741046e-01 1.8312672397288194e+00 5.7872543886625682e-01  -1.4724954481815050e-01 2.5502592873421448e-01 9.9388705802724264e-01  1.9799292797465950e-01 2.0643691177905973e-01 9.8862690117280605e-01  5.9674187826383807e-01 2.3204676754019171e-01 8.2484431678246140e-01  -4.1252988287060405e-01 1.0353526415755985e+00 9.0018269070142010e-01  8.7859694497237184e-01 2.4441522157118634e+00 4.9306480099677491e-01  8.4031889675385363e-01 2.8096563219861257e+00 3.6795330030165219e-01  4.9840969419133990e-01 2.8749223201553309e+00 1.1906739180775353e-01  1.6400316711030458e-01 1.6420783857710932e+00 7.1605110316537712e-01  5.2790711748156471e-01 2.0417423588365065e+00 6.2756977156265914e-01  1.0574504143456209e+00 1.6985711955579454e+00 1.9941864286288893e-01  9.2438789444449043e-01 2.0984041803086648e+00 5.4139063402764465e-01  -1.1998184197060711e+00 3.0203019796485182e+00 1.8307569502700188e-01  -1.1378733848957745e+00 2.7407659102560866e+00 2.6572250625264227e-01  1.1786533177806453e+00 2.8095020708689575e+00 2.0902466732303962e-01  9.8377578508502506e-01 2.6266621699105597e-01 2.7048834786421816e-01  1.4156793522763078e-01 8.9808068110860739e-01 9.5569359470282766e-01  -4.8518594268131832e-01 2.6845379770710678e+00 2.2561050692614168e-01  1.1556021247227490e+00 2.4575816902366605e+00 1.9874391074854680e-01  -1.5114719959724096e-01 6.2459088392338846e-01 9.7223909690008092e-01  -1.1273676788960101e+00 2.3563235967949141e+00 2.4784340576175970e-01  5.5210532431173409e-01 1.7023799595626898e+00 7.7750680870044808e-01  1.1203327264288054e+00 2.0726013332422513e+00 -2.0826602441864573e-05  4.6871329325705036e-01 2.6386826990623886e+00 2.3770771608574109e-01  -8.4477545176656077e-01 -2.0965117947395651e-08 5.6446280632038603e-01  -5.2708230903054987e-01 2.2674353950636856e+00 5.0628067666168286e-01  1.2234910414641731e-01 2.2883003491855538e+00 1.9911347324102846e-01  -8.3385127015091687e-01 3.0026963208623512e+00 2.9133562616879094e-01  -5.1461568459076146e-01 2.0391229505558632e+00 6.2352527389956847e-01  -1.0108457742860395e+00 8.9926349795111316e-01 2.0263308173320155e-01  -9.1757237181618667e-01 1.2441453595889309e+00 5.1573809458757025e-01  -1.6441647667590503e-01 1.9482186934525012e+00 4.7121642883813425e-01  -9.2902652306269740e-01 2.7472596429173599e+00 3.8955195741794563e-01  -1.6080515844553459e-01 1.6902743325410152e+00 6.7358612058587808e-01  -2.9046336267516226e-01 2.5731223153364531e+00 1.0605346185924082e-01  4.8549511677871748e-01 2.2906878144919283e+00 4.6469469025722954e-01  -6.8884062120056566e-01 1.4305730309651621e+00 7.6484533122311960e-01  8.1471624654988672e-01 6.7089350170030937e-01 6.3397503410125433e-01  -8.5246903940559671e-01 2.3571800792889513e-01 5.6085059819021177e-01  9.9573557538263435e-01 7.3471141044771715e-01 2.5403243344710918e-01  5.4629519737839094e-01 6.1048700946255707e-01 8.5773730050303809e-01  5.7487744277984620e-01 1.3381158695119013e+00 8.2902284734459086e-01  -5.1374385323234206e-01 2.0404003217895120e-01 8.7671754911987787e-01  -2.5584750788607064e-01 2.2942093092899061e+00 2.6931823920165732e-01  -1.0218586857898377e+00 5.6605668243509399e-01 -1.5345462341198746e-05  -2.4603176269385549e-01 1.4089430866214279e+00 8.8796754289445723e-01  2.5565598070677392e-01 5.9371933767710272e-01 9.5882031124347356e-01  1.0220748491158529e+00 1.4911186998383368e+00 2.8918880240904643e-01  1.0456145880223977e+00 1.3205488535834884e+00 -1.4906950536377740e-05  -9.2386172001428024e-01 2.2312337108628744e+00 5.2274090236680781e-01  8.9462560225836718e-01 1.3903950066965738e+00 5.6428494367867243e-01  -9.9647418860770065e-01 -6.9251814219879683e-07 1.9820654259557058e-01  4.0098077910501806e-01 1.0271216215033925e+00 9.0369633488844692e-01  1.6889335247579360e-01 1.4060762514750946e+00 8.8767411249834927e-01  -1.0738840097849749e+00 1.9208214770098067e+00 2.4332270844132570e-01  2.0710359474344731e-01 1.9183835201910502e+00 5.1531152252202994e-01  1.0218695353181633e+00 5.6604763397649882e-01 -2.7344928201808554e-05  1.0932411988665756e+00 2.0616437341821356e+00 2.3863343290857436e-01  -8.4470040682058667e-01 1.0295960342395836e+00 6.1235547707206295e-01  -1.0157495230378673e+00 1.1405177641134610e+00 2.2722363926401687e-01  -1.0188825930385310e+00 1.8873411259333064e-01 -3.3231845722142925e-05  9.3980698224689729e-01 1.0926301452695675e+00 4.5906531996520344e-01  4.0937822022289994e-01 2.1187932634855222e-01 9.2709903009514683e-01  -1.1199930773804045e+00 2.0726647198492438e+00 -3.1758574717514352e-05  8.5206473463669530e-01 4.7277906814465326e-01 5.7253753672052310e-01  1.0030051085562450e+00 4.5626699616333311e-01 1.9623163239922781e-01  9.2586849318869169e-01 7.2466107401244040e-01 4.5694880833281670e-01  3.7527061889825808e-01 1.2929619401022709e+00 8.9640702840792619e-01  9.1385221967860331e-01 1.7956564845618570e+00 5.6503008146499056e-01  -1.7591790354812955e-03 1.0497235801570495e+00 9.5239307686501151e-01  1.0210707891473987e+00 1.1749884158478117e+00 2.0704765557908913e-01  -1.0045997810805067e+00 4.7186377061905432e-01 1.8828433236943354e-01  5.9228145055401200e-02 6.9404419523083405e-01 9.7405272016782685e-01  -9.4953756741397977e-01 4.9572330529529918e-01 3.8585565355542040e-01  -5.9866459551834961e-01 1.0848269818474565e+00 8.2293236085827770e-01  -9.5361182028237379e-01 2.0253265341399205e+00 5.1832187458045420e-01  -1.2419641050169909e+00 2.8234341138595402e+00 2.4055575694925385e-05  7.6707871373825165e-01 1.0107138846425614e+00 6.9929423776180721e-01  6.5079401516998137e-01 2.7702216039580487e+00 3.1214528450038231e-01  -5.2615792219834945e-01 1.5264491784461514e+00 8.2764289175184336e-01  7.2561381236156897e-01 2.0617378912495066e+00 6.4194801208493202e-01  7.4014573941435002e-01 1.6695774999444770e+00 7.1936744990557355e-01  -1.8954510612542597e-01 2.7247577010194393e+00 -8.8366708655829990e-02  -5.6921091700723857e-03 2.5301591830505235e+00 -6.5922644534865838e-03  -1.1202446243777882e+00 2.1681206752384119e+00 1.7793452067140611e-01  9.9647555833410995e-01 -7.5937228904291656e-07 1.9820953144983039e-01  8.3374591429860700e-01 3.0025525095780989e+00 2.9064953116479664e-01  1.9820808323882269e-01 1.6859253404618371e-06 9.9649236359284843e-01  -1.9821658377955184e-01 5.8506009930334411e-07 9.9648283795873038e-01  5.6445641504110955e-01 1.3507175629095634e-07 8.4477753518879584e-01  1.8916589382408217e-01 2.7246168129176271e+00 -8.8725447364084262e-02  8.4477855694119208e-01 -1.0218772090329489e-07 5.6446229808572812e-01  1.2000063345158629e+00 3.0203470464425917e+00 1.8299249151894492e-01  -4.9851991688336261e-01 2.8751096809121148e+00 1.1968063332221839e-01  -5.6446341582288506e-01 -7.1248702162997206e-08 8.4477031353418630e-01  -6.9550082921303408e-02 2.2371600480082132e+00 2.2207413796354289e-01  1.0319525446116586e+00 2.8206494176420507e+00 3.3605568181308759e-01  5.0957088021247565e-01 2.4951453236786731e+00 3.6202188597107587e-01  6.8523766287251209e-01 2.4252968549931757e+00 4.9837194384651973e-01  8.5999217360434477e-01 2.6295079314709100e+00 4.3655792688327422e-01  3.5998457711194831e-01 1.6708233420909737e+00 7.7075364582438810e-01  -7.6157278550080520e-01 2.8295773290187483e+00 3.3988819610073429e-01  -3.3116863982079142e-01 1.8901028752658594e-01 9.5627085899545861e-01  -1.1698432082182788e+00 2.5510747696310805e+00 1.8772435950905372e-01  -9.4143210958278645e-01 1.6408679920769880e+00 5.1481378119139110e-01  -1.0412406293167444e+00 1.5321691096727852e+00 2.1139566593320686e-01  -1.0724071386550524e+00 1.6973947856577614e+00 -3.5099483754366782e-05  -8.1312935184536383e-01 1.6485597723912677e+00 6.6765981839607214e-01  -5.6903940836106959e-01 3.9097884077132289e-01 8.4480939626828144e-01  1.2425177153775255e+00 2.8233184055926372e+00 -1.9422634546043559e-05  -1.0294722855697567e+00 9.4337567602213412e-01 -1.7238718917339051e-05  1.0188692253530840e+00 1.8873203329359767e-01 -2.9276736919274984e-05  1.0725691869808371e+00 1.6973618533562129e+00 -1.9588378731217421e-05  1.0295185175551198e+00 9.4336104327697212e-01 -4.8713662085411167e-05  -1.0455081466573466e+00 1.3205700409574996e+00 -3.1792181275811077e-05  1.1827545711280900e+00 2.4469918837354196e+00 -1.9291929870981693e-05  -1.1823899754711413e+00 2.4470602460142685e+00 -7.2793504827732571e-06  7.4148014299537279e-01 2.8665755536764093e-01 7.0239063812560365e-01  -1.0090150818097259e+00 1.8701609761930376e+00 4.2187426221990343e-01  -7.8696843253215121e-01 6.3410997572437633e-01 6.6577174511773041e-01  -3.2714822127481302e-01 1.2152138572628715e+00 9.1249650061139120e-01  -7.5326028382666999e-01 1.9065618265149147e+00 6.7614645519510708e-01  -4.5855300588806475e-01 1.7587950714508656e+00 7.4945167757254683e-01  -5.8943387345379306e-01 2.4367108810526039e+00 4.5199163895747335e-01  5.3118306373573820e-01 8.9841270502363524e-01 8.6032514674897187e-01  1.8282561098714947e-01 2.1537147353412558e+00 3.2601658437286363e-01  5.3172868675479934e-01 1.8747961056070952e+00 7.0955900387549375e-01  1.0683051395223486e+00 2.4457261670639143e+00 3.6489219499353620e-01  1.1287943131882345e+00 2.2374624498566829e+00 1.8721151009107412e-01  1.0792607874499549e+00 1.8827496358836584e+00 1.8957932094443936e-01  -2.3036853394824755e-01 1.0572427547786927e+00 9.3719402657924966e-01  7.1494178542743492e-01 1.2477338419508301e+00 7.4731107466292546e-01  5.7584822094130050e-01 1.5226687272837811e+00 8.1320193683872466e-01  -2.0508526998122414e-01 4.3922978211102176e-01 9.7584894185279536e-01  -9.9183459167197863e-01 1.5125102576301508e+00 3.9102891382119154e-01  -1.0419458037165421e+00 2.3060893644922329e+00 4.0310508007753532e-01  -1.0110619945511488e+00 6.4868078650398475e-01 1.6237066584803048e-01  4.2227192369490255e-02 1.9451614083041802e+00 4.3934388073406222e-01  5.7375012281628979e-01 4.3547494262416758e-01 8.4212045940385416e-01  2.3878871181587319e-01 4.1431114164845007e-01 9.7106674686011352e-01  1.1584347054883910e+00 2.6331381863548393e+00 2.3204953908747028e-01  8.7693514446450160e-01 2.2710557250587540e+00 5.3999147821023885e-01  -5.4938723340477480e-01 2.5742588172730070e+00 3.4846383701626715e-01  -5.7974396368182546e-01 1.8984294753186792e+00 7.0593927469829620e-01  1.0326382307133033e+00 2.0661547936602807e+00 4.0565849528401232e-01  -4.7711458579328316e-03 1.3502498098052060e+00 9.0870923874820120e-01  3.4306064305047235e-01 2.2521343372849594e+00 3.7004904288435331e-01  3.6388774020005177e-01 1.9800661182589683e+00 5.7226175842810167e-01  1.8642832407229075e-02 1.8101082597685239e-01 1.0074001525759502e+00  -8.5828867845268186e-01 2.6000627392206437e+00 4.4747678368383903e-01  1.7709204351705457e-01 1.7771479821990563e+00 6.0977549314704160e-01  3.3298971020513796e-01 2.5378731529825016e+00 1.6830120911868615e-01  -3.1560377044427029e-01 5.7190999159527534e-01 9.4685947472957810e-01  -4.8712475713324849e-01 5.6760771097802565e-01 8.8773413064272255e-01  6.1339033671775428e-02 2.4075549451212988e+00 9.2477294816579708e-02  -1.7817253651238532e-01 2.1481604033928487e+00 3.2739722167323243e-01  -9.0247791594072169e-01 6.3443292229871606e-01 4.9727989385695442e-01  -9.6772875123316293e-01 8.6075649667995269e-01 3.6577364136218576e-01  -3.8296914589952180e-01 2.2828043830099007e+00 3.8373415115258391e-01  -3.1891461923440712e-01 1.9949177971505052e+00 5.2970777182780659e-01  -1.0098739104242946e+00 2.8310431444262046e-01 1.4527166921503246e-01  7.8722965216148055e-01 1.3569689388940082e-01 6.4531929366641294e-01  -6.4287161139676541e-01 1.3889305551213846e-01 7.8849036844661047e-01  -1.0677981264148784e+00 1.7595048820802119e+00 1.6949068061218833e-01  1.0345581460728297e+00 1.3500094857826821e+00 1.7923716693613151e-01  -4.9773072392394208e-01 8.7434022475320983e-01 8.7577772116496122e-01  -5.9388477047866495e-01 7.3411043143678012e-01 8.2983846079243784e-01  7.5185024052359124e-03 1.6727060456126774e+00 6.5685975350434278e-01  -9.7421510646343512e-01 1.3922918622145114e-01 2.9536361785327936e-01  -6.1780191824065989e-01 2.7563846416950697e+00 2.9768916963141351e-01  1.0189397428829972e+00 8.4922411739715342e-01 1.3665283319561000e-01  -1.7601979925548236e-01 1.8207217287759856e+00 5.7470988892742136e-01  6.8357949702289000e-01 6.3452086723888834e-01 7.6611433037415400e-01  -9.1214149648270948e-01 3.5510884736531223e-01 4.6285682931065653e-01  2.2403748345829091e-01 2.4132474095813334e+00 1.6235850264522197e-01  8.5346908785783226e-01 1.5800209115834065e+00 6.2764444509798223e-01  5.0155249069995178e-01 1.1945719851853693e+00 8.6463663152281056e-01  -3.1615284328699439e-01 2.4442795568634890e+00 2.1463086496388956e-01  8.5427412409439518e-01 1.9648243821794147e+00 6.1136125308404365e-01  9.9235467070364825e-01 1.7383682016578761e+00 4.3356702350892912e-01  -7.4404932004186553e-01 4.5601731422922598e-01 7.0562183415340018e-01  2.1260832348809486e-01 7.5120775657041383e-01 9.5690576012963102e-01  -6.1925637652168097e-01 2.1650450977143954e+00 5.9793529926130662e-01  -6.1341222227653480e-01 1.2463436933109904e+00 8.1253357511337765e-01  -7.3005166052204429e-01 1.0335057635945053e+00 7.3339225253693052e-01  -7.9620548462188712e-01 1.3443985020216478e+00 6.7918248867910769e-01  9.4579869214927237e-01 9.3619104375858575e-01 4.3053901558325908e-01  -9.7619636761046347e-01 1.1782547944852226e+00 3.8012083339449682e-01  8.9768504829535911e-01 1.2497595668671561e-01 4.7951229019957986e-01  9.1718646718457741e-01 3.8355769645499971e-01 4.5404036846245210e-01  -6.6413258082498838e-01 1.5887305591371588e+00 7.6896006192110966e-01  9.7019238127858032e-01 1.4424341068842894e+00 4.3285807448188701e-01  -9.3082514095103264e-01 2.390189381