<?xml version="1.0"?>
<VTKFile type="UnstructuredGrid"  version="0.1"  >
<UnstructuredGrid>
<Piece  NumberOfPoints="758" NumberOfCells="1386">
<Points>
<DataArray  type="Float64"  NumberOfComponents="3"  format="ascii">-1.570796326794897 3.048 0  -1.570796326794897 0 0  1.570796326794897 0 0  1.570796326794897 3.048 0  0 0 0  0 3.048 0  -1.570796326794897 1.524 0  1.570796326794897 1.524 0  -0.04609926118424437 1.524 0  0.7853981633974483 0 0  0.7623485328053261 2.262242601661362 0  -0.7853981633974483 0 0  -0.7853981633974483 3.048 0  0.392699081698724 0.7745759241961347 0  -1.570796326794897 0.762 0  -0.8084477939895706 2.0955 0  -0.68277245543452 0.8915343570675713 0  0.7853981633974483 3.048 0  0.778743707341909 1.468410948960538 0  2.780093748954961e-16 2.285302774973185 0  -1.570796326794897 2.286 0  1.570796326794897 0.762 0  1.570796326794897 2.286 0  -0.9375370967763674 1.47348297960658 0  0.9831575747762593 0.9003629142671278 0  -0.3926990816987241 0.4064697549061488 0  1.177419588818055 1.905 0  0.3692901340097942 1.880893989147954 0  -0.4920225169641509 2.564371687128368 0  0.3926990816987241 3.048 0  1.178097245096172 0 0  1.155705348811136 2.643920532523289 0  -1.178097245096172 3.048 0  -1.178097245096172 0 0  -0.1391296372266528 0.8873724190154949 0  -1.10527745318919 2.528282743051346 0  -0.9817477042468103 0.4742759268549471 0  -0.3416666987802651 1.923944646262223 0  -1.570796326794897 1.905 0  -1.156555306160469 1.030861936336814 0  0.7648449098493205 0.4764142032227 0  0.3926990816987241 0 0  -0.4820376416180818 1.326151321396512 0  0.06374421723344185 0.4545169930886408 0  0.1972735722393064 1.163324878565267 0  0.3900417218314142 2.566922767651637 0  1.570796326794897 0.381 0  1.188877612935585 1.295195418509834 0  1.179914028402171 0.5308585702661928 0  0.7660075594126428 1.865233039449035 0  0.6330293131838399 1.095171663968746 0  -1.201232463242587 2.144287146570887 0  -0.3926990816987241 0 0  -0.3926990816987241 3.048 0  1.178097245096172 3.048 0  0.7684409382397209 2.649499271873753 0  -1.236954997304436 1.7145 0  -0.1088573452899617 2.666651387486592 0  -1.570796326794897 1.143 0  -1.570796326794897 0.381 0  1.570796326794897 1.143 0  1.570796326794897 1.905 0  1.570796326794897 2.667 0  -1.570796326794897 2.667 0  -0.6730839067294777 1.743003792473746 0  1.199831389396789 2.275437921225198 0  0.3936837537618041 1.495643752599615 0  0.01539369169800942 1.928544709491661 0  0.4156551272669651 0.4219033286010089 0  0.3401546043708642 2.225103550856524 0  -0.3379897306391274 2.262671266279809 0  -1.23624174049596 0.7000907110925838 0  -1.265224057170889 1.360131453617764 0  -0.1224339018241312 1.210043725539656 0  1.289286200625578 0.9918698881707442 0  -0.7751142346211329 1.197848666814478 0  1.003546186550495 0.2660297686099683 0  0.1963495408493621 2.808538634159524 0  -0.8079023568959116 2.703551618159924 0  -0.3480226984353056 1.610059855391589 0  1.075147893506229 1.598068412087719 0  -0.8290627893979112 2.399544545867518 0  0.6965048925255637 0.7972100472372819 0  -1.257765094876752 0.3107645483825858 0  -0.6724835324263325 0.5684215760013651 0  -0.3995059642389676 0.7173610149075536 0  0.9136951972244611 1.187564504803626 0  -0.964259350608907 0.8095514380783081 0  -0.7565990314517038 0.2897049735129544 0  -0.9603859887840651 1.834914433810327 0  -0.1457055965762301 0.2521630699436873 0  0.1963495408493621 0.2041911848053476 0  0.6241974196550791 0.231695999252114 0  -0.4098815011312292 1.029160072548571 0  0.9592800715482012 2.452820690856482 0  0.9648684169153161 2.840751931000357 0  0.5890486225480862 3.048 0  0.164631037784102 1.698913854044779 0  0.5664480837073581 2.070920238540226 0  1.374107957806476 1.7145 0  0.9861079629544779 2.102471438422718 0  -1.374446785945534 3.048 0  -1.288827800789186 2.762781313597598 0  1.353232957571468 2.835634774483438 0  1.302158670506274 0.2650078124691045 0  0.1394669809465775 0.8907702620243092 0  -0.5631487221059602 2.830992231257464 0  1.372837635547072 2.483038902756259 0  -0.1493395228831287 0.618617259260858 0  -1.32327048447753 2.378769394323546 0  0.56080204725298 1.699622905297025 0  1.570796326794897 2.0955 0  0.5403456747786348 2.786446773498672 0  -0.9817477042468103 0 0  -0.5847039960246873 2.326882432521036 0  0.1225428891326576 2.526494255738436 0  -0.9817477042468103 3.048 0  -0.5522901559753841 2.071668786267058 0  -1.370864794258017 0.9075071715671403 0  -1.043891045637083 1.250611220450313 0  -0.1652643923634778 2.09141301924679 0  -1.044446740946883 2.764982067459552 0  -0.1610370079820225 1.763280243096074 0  -0.3136912237752232 2.810498886211121 0  0.5400974078002052 2.370472734822523 0  -0.7009161718414544 1.427243880175582 0  0.902907438200502 0.6735032943420574 0  -0.9879196222361604 0.2371379634274736 0  1.319268546233604 0.7412771512308228 0  0.5578373583610097 0.608241627784878 0  0.5756483102040615 1.332636919938113 0  -0.5281701577409 0.2032348774530744 0  -0.266729509930448 2.489223923247521 0  -1.570796326794897 0.5715 0  -0.2430656531629531 1.405631921096758 0  0.253622337931223 0.5884397663452474 0  1.284044721043478 1.50372037617638 0  1.570796326794897 1.3335 0  -0.9904333867980613 2.235882060371517 0  0.9871146764618406 1.395690276854986 0  -1.374446785945534 0 0  0.3981951765262902 1.020833864419675 0  0.1670583512016766 1.405384478716078 0  -1.330327693484763 1.938638984813805 0  0.2106653067452682 2.040805097078886 0  1.570796326794897 0.5715 0  1.334822181490566 2.081373939821734 0  -0.9303227889097604 1.033236710715967 0  -1.34639228476592 1.150776798768373 0  -1.570796326794897 0.1905 0  1.106697207481837 1.099709897393925 0  0.4137866939027022 0.2104288000383385 0  -1.570796326794897 2.0955 0  0.9761377489246634 0.4754251272674608 0  1.377108465632662 0.4605024587280874 0  1.108114944719677 0.7297638044096917 0  0.3695908229138113 1.285681859811955 0  0.9799112840676307 1.800306505551499 0  -0.001696842075803034 1.042028929293442 0  1.366537356420357 1.185723700290463 0  -1.385029840108318 0.47625 0  0.05842649915411911 0.6874537157920781 0  -1.183268988745763 0.4997334438341218 0  -0.6073502281622543 1.081347079085406 0  -1.026941765261019 2.031536576622642 0  -1.570796326794897 2.8575 0  0.8159726599830506 1.011928543199529 0  0.7652782693277244 2.849245002237192 0  -0.5252326280373281 1.520125074885265 0  0.7648326174724897 2.063743853392348 0  0.757099741434616 1.666331708950521 0  -0.1963495408493621 3.048 0  -0.005410422648647092 2.843333256403111 0  -1.395368347654653 2.19075 0  1.374446785945534 0 0  0.9817477042468103 3.048 0  0.1963495408493621 0 0  -0.1963495408493621 0 0  0.5890486225480862 0 0  0.1963495408493621 3.048 0  0.9817477042468103 0 0  1.374446785945534 3.048 0  -0.5890486225480862 3.048 0  -0.5890486225480862 0 0  -0.06865319188571758 2.471928549109083 0  1.159049337209348 2.838090892449816 0  0.5817075150535711 2.596909954318943 0  0.7656515661107315 2.455866896253367 0  0.9620790410056582 2.647119292933887 0  0.3676829480103987 1.68739481709134 0  -0.8886101495223063 2.878912500124773 0  -0.3317793704126089 0.1873756770788371 0  -1.383208664444332 2.577695923010364 0  -1.043597917648523 1.648216005744782 0  -1.362178343413552 1.546177620526679 0  -1.570796326794897 1.7145 0  -0.8462722504471433 1.648434957877788 0  -0.588076822054871 0.3899352838051667 0  1.570796326794897 2.8575 0  -1.570796326794897 0.9525 0  1.570796326794897 0.1905 0  1.570796326794897 1.7145 0  1.570796326794897 0.9525 0  -1.570796326794897 1.3335 0  1.570796326794897 2.4765 0  -1.570796326794897 2.4765 0  0.8103777117362174 0.287468585434799 0  -1.145334531235929 1.881885620422454 0  -0.8620560674467429 0.6361265362229395 0  -0.321688879263093 1.207848147265888 0  -0.7798551871678058 1.904240998338365 0  -0.4724954359209014 1.769587110195458 0  -0.667402576232105 2.495985359319255 0  0.5365063314111709 0.8945566719544227 0  0.1855702280441107 2.342745654422604 0  0.55510120733165 1.88540118775351 0  1.188295809121239 2.460939894898248 0  1.38587897409014 2.260870763688798 0  1.383978812419919 1.901097375082534 0  -0.2265735189171196 1.049795314962436 0  0.7387890113368257 1.246392780742437 0  0.5763234466275948 1.516457524623135 0  -0.203279258075353 0.4348372558382012 0  -1.179202350299698 1.523245956950107 0  -1.151844216720993 2.318990544544152 0  -1.410806081599612 0.6547540757597369 0  0.04190096621848406 2.108399609871347 0  0.5925649981629265 0.4343292987553075 0  0.2371113691258682 0.4102816185532077 0  1.334103818253725 2.657728219912091 0  0.9405077369493808 2.275181409651143 0  -0.633962040105568 2.669303984283053 0  -0.6045614816381242 1.904349918307267 0  1.159697673803787 2.079238591118184 0  -0.004643801590645341 1.347662554528907 0  0.3691400131247499 2.395423267764724 0  0.3855005143298051 2.055603978165229 0  0.01839821075864462 0.1788084577298442 0  -0.9568120219060965 2.61629404172056 0  0.1783135820912846 1.871116340262054 0  0.3649950158263953 2.745288921627024 0  -0.3142054567155264 0.5671999812317062 0  -0.4933549623779417 0.564740705097546 0  0.06092775470575962 2.685867440722903 0  -0.1801827362748675 2.337517890002858 0  -1.063355415037434 0.6386189748554 0  -1.205242865599393 0.8676070232612285 0  -0.4176020549597784 2.412196127179313 0  -0.3347051678178828 2.093252344225509 0  -1.427772711006951 0.2857500000000001 0  0.8835729338221293 0.1362887052191026 0  -0.6831011505337878 0.1389086130988801 0  -1.403875662049666 1.77648180985222 0  1.394165436236593 1.362588987767805 0  -0.5007942298153729 0.8700626692351643 0  -0.6093220848169366 0.7321530406295067 0  0.007534593095922887 1.760126887057542 0  -1.276272015520854 0.140425968067263 0  -0.7270478511000733 2.847016806985676 0  1.436331331726002 0.85725 0  -0.1770320080670663 1.927167796173981 0  0.7200726153501196 0.6345534912379586 0  -1.099983122078282 0.3577316115390257 0  0.2324759135153202 2.648405702327079 0  0.9054371869972004 1.582409569434113 0  0.5000672234640285 1.188708149930449 0  -0.340793734207542
[...]
<PointData  Vectors="phi"> 
<DataArray  type="Float64"  Name="phi"  NumberOfComponents="3" format="ascii">-1.2569495094488934e+00 3.0219511396336829e+00 3.4359006540472570e-04  -1.0160119245442965e+00 7.2557514307390008e-08 -9.2793592151388308e-06  1.0160119847452131e+00 4.5077868845969649e-08 -1.1094662136597986e-05  1.2572195359667873e+00 3.0218858358514593e+00 2.7555408702042918e-04  -5.8517448708481245e-06 3.7762716291764410e-07 1.0160213825342377e+00  -6.7154688804273545e-04 2.5429216294412180e+00 -4.3615809320417731e-01  -1.0656697372742507e+00 1.5094579108854882e+00 -1.6851220193688998e-05  1.0660067913653575e+00 1.5093907479672795e+00 -2.5277232518432773e-05  -4.6890607628047400e-02 1.3725202310198341e+00 5.4431063382291711e-01  7.1842697324985250e-01 -2.1364578159345000e-07 7.1841661949121405e-01  6.3603236798473650e-01 2.1975163523381527e+00 3.9651545875889382e-01  -7.1842414116002462e-01 -1.6196539177845684e-07 7.1841858970022587e-01  -6.1101551598794990e-01 2.8558159194117794e+00 -3.1272978841048349e-02  3.9650075062731821e-01 7.7916916434404204e-01 9.2108348545982555e-01  -1.0238130615673600e+00 7.5535334924854658e-01 -2.1542601453032921e-05  -6.9833762592527315e-01 2.0646579724146421e+00 4.8976457673751750e-01  -6.6292957966412180e-01 8.9372792839271487e-01 7.8952344050171774e-01  6.1068293184061551e-01 2.8552517475989130e+00 -3.2821191738766173e-02  7.4248123765180962e-01 1.4713793491053624e+00 6.9346992945298047e-01  -4.8056986632246079e-04 1.9635153742382967e+00 6.2093151237861313e-02  -1.1825310944826384e+00 2.2603980122795306e+00 1.4349675721924345e-05  1.0238488020464835e+00 7.5533348569304415e-01 -3.0607389989836628e-05  1.1831174920878111e+00 2.2602721609132241e+00 -6.0794250315264821e-05  -8.7284259420751431e-01 1.4727309289157793e+00 6.0017320897039950e-01  8.7163188165980832e-01 8.9710412444179444e-01 5.6903725804379157e-01  -3.9169577386194898e-01 4.0905129226740872e-01 9.3052491278339355e-01  1.0324122114816290e+00 1.8944032181200243e+00 3.8497792346168408e-01  3.3793106581366322e-01 1.7358098466086984e+00 4.2562229209393665e-01  -4.1751096243597485e-01 2.3338618277580117e+00 8.2398397385186006e-02  3.3772052120476487e-01 2.6764203092234862e+00 -2.6568481586273546e-01  9.3865728768431678e-01 -4.4068768626107195e-07 3.8880527067883325e-01  9.6953388613126523e-01 2.6205576973972127e+00 2.8773769152278633e-01  -9.3889092545457331e-01 2.9972065863631632e+00 1.4583386100304749e-01  -9.3865713713476295e-01 -2.0558915200454184e-07 3.8881449114686195e-01  -1.4182698676468303e-01 8.8955467847623826e-01 9.4847289393367840e-01  -9.3519834244548461e-01 2.5070870658093116e+00 3.3118344709166009e-01  -8.5549962077366437e-01 4.7204969876348252e-01 5.6799107003787330e-01  -3.1594370241584607e-01 1.7591095331407707e+00 3.8618506902433158e-01  -1.1224569090802583e+00 1.8841729217513414e+00 -2.4747232154714796e-05  -9.5788916926918266e-01 1.0244570640707338e+00 4.1279903434322163e-01  7.1431384685076260e-01 4.7606535287781776e-01 7.3650435775094236e-01  3.8881369962978429e-01 9.6771064609474099e-07 9.3866789438540510e-01  -4.6336740180563890e-01 1.3159126368887988e+00 7.8085994291786687e-01  6.4708363139397346e-02 4.5834492077880512e-01 9.8893573799908208e-01  1.9491394080478788e-01 1.1277837223526224e+00 8.1209019105089586e-01  3.4456724861754195e-01 2.2902545789578586e+00 2.1328565784665049e-02  1.0199520739038503e+00 3.7772912776064732e-01 -1.9566195961223057e-05  9.8717032142021188e-01 1.2867231114672855e+00 3.8274947606631010e-01  9.4885759606234643e-01 5.2713144055136851e-01 3.8919302578468995e-01  6.8584012903813285e-01 1.8487606705905846e+00 5.7997626374823974e-01  6.2447925514097014e-01 1.0996456728360386e+00 8.0936560187868445e-01  -1.0501847819055132e+00 2.1321932363257434e+00 3.5119571663558585e-01  -3.8880191699628192e-01 -3.2009819822106066e-07 9.3865693593898636e-01  -3.3867733528733657e-01 2.6768368285328035e+00 -2.6473301930596754e-01  9.3856571045534065e-01 2.9967919967210950e+00 1.4435267426804735e-01  6.1286772304918880e-01 2.5234735093725265e+00 1.8845129007863617e-01  -1.0436024209331505e+00 1.7019685121953514e+00 3.3512510413933061e-01  -1.0927200621583079e-01 2.2726050733692444e+00 -1.6227514130310527e-01  -1.0347174425638332e+00 1.1328647051152385e+00 -2.4316381163315079e-05  -1.0199578227993509e+00 3.7773847012675932e-01 -2.4510160798265417e-05  1.0348145652829395e+00 1.1328310984764793e+00 -1.2230576542596825e-05  1.1230212830050936e+00 1.8840499288562433e+00 -4.8018105446383199e-05  1.2298949950666207e+00 2.6401326501438489e+00 -6.2119064352528019e-05  -1.2290641139075571e+00 2.6402752583693738e+00 2.0411372576016037e-05  -6.0906601283549289e-01 1.7217735092186897e+00 6.2211548095028812e-01  1.0456783157327239e+00 2.2628192169262205e+00 3.3979651098747143e-01  3.6891299002765543e-01 1.4374539601310794e+00 6.6680286209660933e-01  1.5212927904213419e-02 1.6840755435351578e+00 2.8476384541370153e-01  4.1367812184549235e-01 4.2444698892363375e-01 9.2206669863646751e-01  3.1145391992040572e-01 1.9967017836203960e+00 2.0106835601499945e-01  -3.1029389246944183e-01 2.0257238330043172e+00 1.7751993164628560e-01  -9.7196614033007378e-01 6.9493594651008717e-01 3.3550493263710390e-01  -1.0143020315689391e+00 1.3498721442497230e+00 3.0833192757440059e-01  -1.2244085072433478e-01 1.1488561907731625e+00 7.6552373465649304e-01  9.9637046280355634e-01 9.8422383926786550e-01 2.8393306665859852e-01  -7.4644951237355872e-01 1.2002678504928699e+00 7.2533148585897833e-01  8.6203440353294059e-01 2.6460232431151870e-01 5.4786761290631436e-01  1.8701315991858386e-01 2.4080702756293997e+00 -2.2052922344172660e-01  -6.4128194591553178e-01 2.5840485903741648e+00 1.7924851221154078e-01  -3.2613010634750228e-01 1.5135802643510756e+00 5.8038708188675703e-01  9.6361372692714808e-01 1.5921466847686008e+00 4.8524944070310849e-01  -6.8258873368255801e-01 2.3360284769439210e+00 3.5170429629527356e-01  6.7088594804055490e-01 7.9868333707679062e-01 7.8147337797943439e-01  -9.7135146783318926e-01 3.0837643776638840e-01 3.1392536417808864e-01  -6.4477688707060599e-01 5.6926390395190885e-01 7.9667932777987160e-01  -4.0227569064986790e-01 7.2162537410188088e-01 9.2076376931111314e-01  8.4621827415844031e-01 1.1861007953236373e+00 6.2689866530431382e-01  -8.5697536053141066e-01 8.0670188410279997e-01 5.8459748220952990e-01  -7.0319156991630460e-01 2.8937152059574561e-01 7.4107747938988644e-01  -8.7827194280244303e-01 1.8329188257028322e+00 5.4480555880412840e-01  -1.4744912801796309e-01 2.5454452605923594e-01 9.9344070752719160e-01  1.9822026714487767e-01 2.0609927919338847e-01 9.8838419982613124e-01  5.9734942479528275e-01 2.3206139134298998e-01 8.2517003281514467e-01  -4.1176295491030152e-01 1.0332168368189771e+00 8.8954052364564085e-01  7.9936485402269142e-01 2.4159201167066540e+00 3.5814756246421131e-01  7.6278979731579410e-01 2.7550024737835246e+00 1.7374711685381861e-01  4.7453316045120497e-01 2.7658568524521709e+00 -1.4935892340616891e-01  1.6242385720516431e-01 1.5259721263295070e+00 4.5482087167688212e-01  4.8617186033961796e-01 1.9673815779967812e+00 4.1365171355420249e-01  1.0775868620313471e+00 1.6983659822663684e+00 1.9967564047784953e-01  8.7365162990461631e-01 2.0938813857488836e+00 4.7635469550117415e-01  -1.1369282579396616e+00 3.0236216585721545e+00 1.4444485019533621e-01  -1.0845052779000708e+00 2.7416724561188759e+00 2.2255523090109997e-01  1.1355195895587449e+00 2.8135683794108166e+00 1.8053511374256925e-01  9.8340035633718570e-01 2.6291145417227807e-01 2.7045864618115345e-01  1.4197424872152539e-01 8.9279885625680611e-01 9.4748449236156640e-01  -4.5973234868573248e-01 2.5812400837948468e+00 -3.3205494315634632e-02  1.1569267631732552e+00 2.4617462562426318e+00 1.9131673165476881e-01  -1.5206936368389115e-01 6.2301815470247202e-01 9.7498737259452450e-01  -1.1265788223256208e+00 2.3599075759841996e+00 2.3798487028816490e-01  5.0634215038031061e-01 1.6566144506298663e+00 6.1467333101079913e-01  1.1540408717915613e+00 2.0717633101744672e+00 -2.0333590969463287e-05  4.4441560833281962e-01 2.5346240830101010e+00 -2.1364145296850604e-02  -8.4477563294814595e-01 2.1329417132197646e-08 5.6446295441005079e-01  -4.8937304612555160e-01 2.1835365868898982e+00 2.7630249582936911e-01  1.2150611112207875e-01 2.1652361106442988e+00 -7.2064670148748095e-02  -7.6145146882233250e-01 2.9367058797163823e+00 7.3705752097905933e-02  -4.7544871167179387e-01 1.9625027811065463e+00 4.0677910127911454e-01  -1.0100291830322423e+00 9.0002098571375722e-01 2.0259292499403639e-01  -9.2418286982736653e-01 1.2456499802933589e+00 5.1741588075575906e-01  -1.6337351279470816e-01 1.8326284724767876e+00 2.0944747291786667e-01  -8.4348728813756579e-01 2.7128963074260266e+00 2.3813872219279936e-01  -1.5958893530131252e-01 1.5750256988804643e+00 4.1324765160040144e-01  -2.8298325156010384e-01 2.4541639095272370e+00 -1.6471285964884133e-01  4.5520859244377665e-01 2.1991729439035361e+00 2.2470157670069862e-01  -6.7218423883699308e-01 1.4298987520244353e+00 7.3005246798390766e-01  8.1518882575558127e-01 6.7162744597666924e-01 6.3425156260497373e-01  -8.5269929679982326e-01 2.3591105249372246e-01 5.6097245192974476e-01  9.9522021708268993e-01 7.3536134620520366e-01 2.5402644132524277e-01  5.4773066307303930e-01 6.1058386504028661e-01 8.5899243641311540e-01  5.5646485319408001e-01 1.3324590979502937e+00 7.7932367792407098e-01  -5.1429521258979427e-01 2.0397323822896424e-01 8.7701219308493583e-01  -2.5159793675034475e-01 2.1782607914070509e+00 4.5684008240532686e-03  -1.0211164817085412e+00 5.6655462497586073e-01 -1.5495485632099113e-05  -2.3664799204676662e-01 1.3209981150374817e+00 6.6670183200968669e-01  2.5686179199504239e-01 5.9263770483211775e-01 9.6084621860673403e-01  1.0336491148040909e+00 1.4917363458023072e+00 2.8984826613432996e-01  1.0464378910818921e+00 1.3213781561650288e+00 -1.4952414401918005e-05  -8.6064333414736827e-01 2.2211519923117002e+00 4.3846998777171026e-01  9.0279298828058285e-01 1.3926983891200735e+00 5.6470333119575167e-01  -9.9647449109157926e-01 -6.6856303443637093e-07 1.9820649718724714e-01  4.0027756109605550e-01 1.0248335358914564e+00 8.9294943981655139e-01  1.6541009969222525e-01 1.3012761430659319e+00 6.4358686274824384e-01  -1.0967460622367931e+00 1.9212178866204350e+00 2.4220062024565281e-01  2.0410461868802265e-01 1.8053325268670035e+00 2.5625708619619508e-01  1.0211310540753682e+00 5.6653887088857846e-01 -2.7385563852907747e-05  1.1137538070239237e+00 2.0627627746602903e+00 2.3597911668265178e-01  -8.4784838566981213e-01 1.0309724479783988e+00 6.1380338615423691e-01  -1.0157574041077779e+00 1.1414197118812099e+00 2.2721597348289355e-01  -1.0183996002772946e+00 1.8891423680667288e-01 -3.3265696675939012e-05  9.4246185299461271e-01 1.0937696250898437e+00 4.5984004162019115e-01  4.0987982650395399e-01 2.1171375739956885e-01 9.2731040646341190e-01  -1.1532516817531813e+00 2.0719067441409731e+00 -3.0801829299468864e-05  8.5243656781713750e-01 4.7323350200530517e-01 5.7277383234339629e-01  1.0024102110644451e+00 4.5668494656446895e-01 1.9621181083717942e-01  9.2580925394856084e-01 7.2541075646200215e-01 4.5702621270448962e-01  3.5629624567909129e-01 1.2601720651123909e+00 7.7948259689469346e-01  8.9729978607918515e-01 1.7983309895131132e+00 5.3926849777229435e-01  -1.8045360172704477e-03 1.0203877587221004e+00 8.7314993927829831e-01  1.0212408773746573e+00 1.1758753826928494e+00 2.0702945754447413e-01  -1.0039869773255670e+00 4.7229936400002320e-01 1.8826471174145745e-01  5.9687300257802431e-02 6.9182792300308815e-01 9.7820559129806839e-01  -9.4939323884300264e-01 4.9620334585113840e-01 3.8591968499033474e-01  -6.0130178234618081e-01 1.0860514119471325e+00 8.2252209953614508e-01  -9.1989400225158247e-01 2.0258874144361370e+00 4.7670449773405443e-01  -1.2447448689507170e+00 2.8312314560354750e+00 1.1214227300008147e-04  7.7084097306962984e-01 1.0121802535587867e+00 7.0145716179281836e-01  6.0199526280804350e-01 2.6854271068432887e+00 7.1860275597934814e-02  -4.8868130414304284e-01 1.4939216249771325e+00 6.9627718393047344e-01  6.5971312873411558e-01 2.0263290572901997e+00 4.9450068693791821e-01  7.0207793617611425e-01 1.6627131532900843e+00 6.5102576897914055e-01  -1.8650738177049522e-01 2.5952934743313429e+00 -3.6945170850916592e-01  -6.1318626468769288e-03 2.3984890735857620e+00 -2.8770320290061424e-01  -1.1437680539552744e+00 2.1692686496197449e+00 1.7613606126825732e-01  9.9647587099075940e-01 -6.4612007138642449e-07 1.9820942656365478e-01  7.6118559384426276e-01 2.9361855112158057e+00 7.1976331601804056e-02  1.9820786831764453e-01 1.4733353690278490e-06 9.9649216920204742e-01  -1.9821646216415861e-01 3.4934699451990580e-07 9.9648261523223136e-01  5.6445629306309686e-01 1.8648986493655298e-07 8.4477746727813086e-01  1.8523592733383684e-01 2.5950314483709200e+00 -3.7009725664037796e-01  8.4477859457360949e-01 -2.0497743271545853e-07 5.6446235803982359e-01  1.1366645986183161e+00 3.0236787436425847e+00 1.4372674342335889e-01  -4.7518059729693884e-01 2.7663164900480353e+00 -1.4814817825985860e-01  -5.6446406906967894e-01 -2.0522459333802350e-07 8.4477189258513952e-01  -6.9816404986803304e-02 2.1138349663117069e+00 -4.8794614105537377e-02  9.4663319731779161e-01 2.8015439923904570e+00 2.2256616197964413e-01  4.7817990703052055e-01 2.4004192328405072e+00 1.1501962974046553e-01  6.2260315567376356e-01 2.3619891328648266e+00 2.9507559377551928e-01  7.7854194666074694e-01 2.5881287707622911e+00 2.7066768072734998e-01  3.4041068665794277e-01 1.5818395489347261e+00 5.4195936054338067e-01  -6.9637594953543558e-01 2.7601584962283483e+00 1.2064962695039790e-01  -3.3155154313815999e-01 1.8879712363073795e-01 9.5636175988887073e-01  -1.1648456602735044e+00 2.5559941979550000e+00 1.7923066278372812e-01  -9.4677910779848817e-01 1.6438073349669042e+00 5.0933917514763050e-01  -1.0532696172662381e+00 1.5325373672415732e+00 2.1176479583256388e-01  -1.0921987051189637e+00 1.6968878909254355e+00 -3.1215867923169727e-05  -7.9083569035327939e-01 1.6492643761710648e+00 6.3161624341265499e-01  -5.6993779822451895e-01 3.9099615834357676e-01 8.4535722953231707e-01  1.2456991111234637e+00 2.8310705304933514e+00 -3.9527687087452400e-06  -1.0281527293210757e+00 9.4412784804936045e-01 -1.7235249511156623e-05  1.0183894112186198e+00 1.8891004743183323e-01 -2.9238761575182268e-05  1.0927105506919679e+00 1.6967870695994525e+00 -1.6955202082355921e-05  1.0282156005031626e+00 9.4410126426668106e-01 -4.8469330910011726e-05  -1.0462534156582655e+00 1.3214215863197705e+00 -3.1367353376211410e-05  1.2088263934167049e+00 2.4497742318578304e+00 -2.7872332108539644e-05  -1.2080688804862001e+00 2.4499115828612159e+00 2.6042015954204763e-05  7.4204476801729313e-01 2.8683469790318472e-01 7.0269028012909163e-01  -1.0135469223721874e+00 1.8729793831611918e+00 4.1348635485549512e-01  -7.8750975842769755e-01 6.3476691987040001e-01 6.6609717721070349e-01  -3.1419340842111715e-01 1.1862316638678974e+00 8.1229844858774047e-01  -6.9494148702071834e-01 1.8866951688564344e+00 5.6616997485988629e-01  -4.2511097173220747e-01 1.6859772248750566e+00 5.4174338490932938e-01  -5.4356472740376927e-01 2.3564247833226255e+00 2.2388753362484110e-01  5.3496453160800184e-01 8.9884865619323084e-01 8.6455198620609253e-01  1.8094695449650097e-01 2.0357865778340885e+00 6.0523932732009934e-02  4.8752444191050370e-01 1.8105239948573606e+00 5.1278200230282855e-01  1.0226715544970169e+00 2.4458161474234075e+00 3.1998719520963526e-01  1.1483080803163002e+00 2.2393273606124988e+00 1.8436619931154760e-01  1.1052451329226871e+00 1.8823765681478664e+00 1.8932029420454294e-01  -2.2634106392077150e-01 1.0413138693055566e+00 8.8486196748654244e-01  7.1626862398194091e-01 1.2500617558065599e+00 7.4290742567253609e-01  5.3846749835558283e-01 1.5010918020453055e+00 7.0713326335827043e-01  -2.0562405341565831e-01 4.3837427629854675e-01 9.7592270991649155e-01  -1.0046007440012765e+00 1.5136636249933013e+00 3.9192923650307249e-01  -1.0038191501990792e+00 2.3069765932668216e+00 3.6325834486756514e-01  -1.0104405458057257e+00 6.4925004383959528e-01 1.6236048634180447e-01  4.1923663693929553e-02 1.8260220646511891e+00 1.7377420027437354e-01  5.7470108470073034e-01 4.3552791100365335e-01 8.4269845079712591e-01  2.3933216721774173e-01 4.1358802452563359e-01 9.7105542227391617e-01  1.1310035190621057e+00 2.6375224437565290e+00 2.1107877845297987e-01  8.0481524898819823e-01 2.2515287321761646e+00 4.2785096972642284e-01  -5.1313625627043935e-01 2.4827016849383909e+00 1.0397647497206937e-01  -5.2907590988193043e-01 1.8432066793943791e+00 5.2373324265086163e-01  1.0231633599088088e+00 2.0692218220976240e+00 3.8772406960379602e-01  -4.9289406358311808e-03 1.2379755858417267e+00 6.5868230422333518e-01  3.3186750288837980e-01 2.1440700518179958e+00 1.1292547758493506e-01  3.4803807650568758e-01 1.8808854369538768e+00 3.2790444692494480e-01  1.8658987623375149e-02 1.8066294221593268e-01 1.0069648986902719e+00  -7.7717213819187170e-01 2.5601817731921415e+00 2.8534512714372873e-01  1.7490243466913852e-01 1.6633714812034899e+00 3.5068473397711653e-01  3.2218355064047249e-01 2.4228704044442986e+00 -9.8941629118537724e-02  -3.1690195410180283e-01 5.7110648672170516e-01 9.4858311539575690e-01  -4.8849367355875717e-01 5.6746378338178893e-01 8.8899516830136660e-01  6.0878445535253185e-02 2.2799353735823882e+00 -1.8375515776044041e-01  -1.7697252215104411e-01 2.0302840666687287e+00 6.2175701238536947e-02  -9.0251639030377862e-01 6.3509492626932773e-01 4.9739354315537926e-01  -9.6747698567380769e-01 8.6158307589560557e-01 3.6580664098116533e-01  -3.6800601125547316e-01 2.1785002068492627e+00 1.3026069989793809e-01  -3.0889327628465768e-01 1.8902402548630095e+00 2.7931478831799877e-01  -1.0092545045764720e+00 2.8337303134491021e-01 1.4523557875554585e-01  7.8742637860773113e-01 1.3578156931150512e-01 6.4538713229580968e-01  -6.4320478303761131e-01 1.3891765847306567e-01 7.8862265813065680e-01  -1.0904591493689204e+00 1.7590797513697449e+00 1.6966327749739341e-01  1.0381900769692423e+00 1.3507829325404452e+00 1.7930880357671738e-01  -5.0142190791443908e-01 8.7450782198468135e-01 8.8041257316556742e-01  -5.9594622902010386e-01 7.3452438497570183e-01 8.3190492261070859e-01  7.3040434227488208e-03 1.5527614548386708e+00 3.9088787676771447e-01  -9.7405133553469725e-01 1.3935590840164058e-01 2.9534738204419736e-01  -5.7439380524855432e-01 2.6675989657616537e+00 5.3113818363361327e-02  1.0180834396400429e+00 8.4991749200155087e-01 1.3662442700734875e-01  -1.7439541264255037e-01 1.7068684930001983e+00 3.1541875661088942e-01  6.8460043610945176e-01 6.3503763751811093e-01 7.6678865103738003e-01  -9.1222079001624345e-01 3.5544216049127081e-01 4.6296250635024377e-01  2.2034594940056859e-01 2.2925968276407787e+00 -1.0808574064287374e-01  8.4690955612816143e-01 1.5830994639439602e+00 6.1181331470878519e-01  4.9272701305936456e-01 1.1907600236272833e+00 8.3315218788005363e-01  -3.0766791028874541e-01 2.3300141003731691e+00 -5.0397924982733822e-02  8.0287494841872531e-01 1.9573271796347373e+00 5.3637485094620918e-01  1.0023873587852956e+00 1.7407190334911482e+00 4.2951776319216178e-01  -7.4472691962438742e-01 4.5637121052957652e-01 7.0601066448047034e-01  2.1441606461395821e-01 7.4932910711853762e-01 9.6173539098750882e-01  -5.6398667817497883e-01 2.1024037390174732e+00 3.9995311512412046e-01  -6.0772303856156307e-01 1.2467098883727874e+00 7.9486566065941222e-01  -7.3433063342479599e-01 1.0350449361095193e+00 7.3601782534491289e-01  -7.9891241006506941e-01 1.3471666081675751e+00 6.7547612531855938e-01  9.4624613287479487e-01 9.3714369901955108e-01 4.3074800113965994e-01  -9.7927195657140098e-01 1.1793040464510640e+00 3.8073648447320918e-01  8.9771128314519000e-01 1.2507768522879106e-01 4.7952789180622585e-01  9.1725798403053227e-01 3.8391926187136294e-01 4.5415024559720701e-01  -6.2603543786045524e-01 1.5766896977204587e+00 6.8657594744749606e-01  9.8129108383596708e-01 1.4437990833449694e+00 4.3405551287780514e-01  -8.5729552958172561e-01 