<?xml version="1.0"?>
<VTKFile type="UnstructuredGrid"  version="0.1"  >
<UnstructuredGrid>
<Piece  NumberOfPoints="758" NumberOfCells="1386">
<Points>
<DataArray  type="Float64"  NumberOfComponents="3"  format="ascii">-1.570796326794897 3.048 0  -1.570796326794897 0 0  1.570796326794897 0 0  1.570796326794897 3.048 0  0 0 0  0 3.048 0  -1.570796326794897 1.524 0  1.570796326794897 1.524 0  -0.04609926118424437 1.524 0  0.7853981633974483 0 0  0.7623485328053261 2.262242601661362 0  -0.7853981633974483 0 0  -0.7853981633974483 3.048 0  0.392699081698724 0.7745759241961347 0  -1.570796326794897 0.762 0  -0.8084477939895706 2.0955 0  -0.68277245543452 0.8915343570675713 0  0.7853981633974483 3.048 0  0.778743707341909 1.468410948960538 0  2.780093748954961e-16 2.285302774973185 0  -1.570796326794897 2.286 0  1.570796326794897 0.762 0  1.570796326794897 2.286 0  -0.9375370967763674 1.47348297960658 0  0.9831575747762593 0.9003629142671278 0  -0.3926990816987241 0.4064697549061488 0  1.177419588818055 1.905 0  0.3692901340097942 1.880893989147954 0  -0.4920225169641509 2.564371687128368 0  0.3926990816987241 3.048 0  1.178097245096172 0 0  1.155705348811136 2.643920532523289 0  -1.178097245096172 3.048 0  -1.178097245096172 0 0  -0.1391296372266528 0.8873724190154949 0  -1.10527745318919 2.528282743051346 0  -0.9817477042468103 0.4742759268549471 0  -0.3416666987802651 1.923944646262223 0  -1.570796326794897 1.905 0  -1.156555306160469 1.030861936336814 0  0.7648449098493205 0.4764142032227 0  0.3926990816987241 0 0  -0.4820376416180818 1.326151321396512 0  0.06374421723344185 0.4545169930886408 0  0.1972735722393064 1.163324878565267 0  0.3900417218314142 2.566922767651637 0  1.570796326794897 0.381 0  1.188877612935585 1.295195418509834 0  1.179914028402171 0.5308585702661928 0  0.7660075594126428 1.865233039449035 0  0.6330293131838399 1.095171663968746 0  -1.201232463242587 2.144287146570887 0  -0.3926990816987241 0 0  -0.3926990816987241 3.048 0  1.178097245096172 3.048 0  0.7684409382397209 2.649499271873753 0  -1.236954997304436 1.7145 0  -0.1088573452899617 2.666651387486592 0  -1.570796326794897 1.143 0  -1.570796326794897 0.381 0  1.570796326794897 1.143 0  1.570796326794897 1.905 0  1.570796326794897 2.667 0  -1.570796326794897 2.667 0  -0.6730839067294777 1.743003792473746 0  1.199831389396789 2.275437921225198 0  0.3936837537618041 1.495643752599615 0  0.01539369169800942 1.928544709491661 0  0.4156551272669651 0.4219033286010089 0  0.3401546043708642 2.225103550856524 0  -0.3379897306391274 2.262671266279809 0  -1.23624174049596 0.7000907110925838 0  -1.265224057170889 1.360131453617764 0  -0.1224339018241312 1.210043725539656 0  1.289286200625578 0.9918698881707442 0  -0.7751142346211329 1.197848666814478 0  1.003546186550495 0.2660297686099683 0  0.1963495408493621 2.808538634159524 0  -0.8079023568959116 2.703551618159924 0  -0.3480226984353056 1.610059855391589 0  1.075147893506229 1.598068412087719 0  -0.8290627893979112 2.399544545867518 0  0.6965048925255637 0.7972100472372819 0  -1.257765094876752 0.3107645483825858 0  -0.6724835324263325 0.5684215760013651 0  -0.3995059642389676 0.7173610149075536 0  0.9136951972244611 1.187564504803626 0  -0.964259350608907 0.8095514380783081 0  -0.7565990314517038 0.2897049735129544 0  -0.9603859887840651 1.834914433810327 0  -0.1457055965762301 0.2521630699436873 0  0.1963495408493621 0.2041911848053476 0  0.6241974196550791 0.231695999252114 0  -0.4098815011312292 1.029160072548571 0  0.9592800715482012 2.452820690856482 0  0.9648684169153161 2.840751931000357 0  0.5890486225480862 3.048 0  0.164631037784102 1.698913854044779 0  0.5664480837073581 2.070920238540226 0  1.374107957806476 1.7145 0  0.9861079629544779 2.102471438422718 0  -1.374446785945534 3.048 0  -1.288827800789186 2.762781313597598 0  1.353232957571468 2.835634774483438 0  1.302158670506274 0.2650078124691045 0  0.1394669809465775 0.8907702620243092 0  -0.5631487221059602 2.830992231257464 0  1.372837635547072 2.483038902756259 0  -0.1493395228831287 0.618617259260858 0  -1.32327048447753 2.378769394323546 0  0.56080204725298 1.699622905297025 0  1.570796326794897 2.0955 0  0.5403456747786348 2.786446773498672 0  -0.9817477042468103 0 0  -0.5847039960246873 2.326882432521036 0  0.1225428891326576 2.526494255738436 0  -0.9817477042468103 3.048 0  -0.5522901559753841 2.071668786267058 0  -1.370864794258017 0.9075071715671403 0  -1.043891045637083 1.250611220450313 0  -0.1652643923634778 2.09141301924679 0  -1.044446740946883 2.764982067459552 0  -0.1610370079820225 1.763280243096074 0  -0.3136912237752232 2.810498886211121 0  0.5400974078002052 2.370472734822523 0  -0.7009161718414544 1.427243880175582 0  0.902907438200502 0.6735032943420574 0  -0.9879196222361604 0.2371379634274736 0  1.319268546233604 0.7412771512308228 0  0.5578373583610097 0.608241627784878 0  0.5756483102040615 1.332636919938113 0  -0.5281701577409 0.2032348774530744 0  -0.266729509930448 2.489223923247521 0  -1.570796326794897 0.5715 0  -0.2430656531629531 1.405631921096758 0  0.253622337931223 0.5884397663452474 0  1.284044721043478 1.50372037617638 0  1.570796326794897 1.3335 0  -0.9904333867980613 2.235882060371517 0  0.9871146764618406 1.395690276854986 0  -1.374446785945534 0 0  0.3981951765262902 1.020833864419675 0  0.1670583512016766 1.405384478716078 0  -1.330327693484763 1.938638984813805 0  0.2106653067452682 2.040805097078886 0  1.570796326794897 0.5715 0  1.334822181490566 2.081373939821734 0  -0.9303227889097604 1.033236710715967 0  -1.34639228476592 1.150776798768373 0  -1.570796326794897 0.1905 0  1.106697207481837 1.099709897393925 0  0.4137866939027022 0.2104288000383385 0  -1.570796326794897 2.0955 0  0.9761377489246634 0.4754251272674608 0  1.377108465632662 0.4605024587280874 0  1.108114944719677 0.7297638044096917 0  0.3695908229138113 1.285681859811955 0  0.9799112840676307 1.800306505551499 0  -0.001696842075803034 1.042028929293442 0  1.366537356420357 1.185723700290463 0  -1.385029840108318 0.47625 0  0.05842649915411911 0.6874537157920781 0  -1.183268988745763 0.4997334438341218 0  -0.6073502281622543 1.081347079085406 0  -1.026941765261019 2.031536576622642 0  -1.570796326794897 2.8575 0  0.8159726599830506 1.011928543199529 0  0.7652782693277244 2.849245002237192 0  -0.5252326280373281 1.520125074885265 0  0.7648326174724897 2.063743853392348 0  0.757099741434616 1.666331708950521 0  -0.1963495408493621 3.048 0  -0.005410422648647092 2.843333256403111 0  -1.395368347654653 2.19075 0  1.374446785945534 0 0  0.9817477042468103 3.048 0  0.1963495408493621 0 0  -0.1963495408493621 0 0  0.5890486225480862 0 0  0.1963495408493621 3.048 0  0.9817477042468103 0 0  1.374446785945534 3.048 0  -0.5890486225480862 3.048 0  -0.5890486225480862 0 0  -0.06865319188571758 2.471928549109083 0  1.159049337209348 2.838090892449816 0  0.5817075150535711 2.596909954318943 0  0.7656515661107315 2.455866896253367 0  0.9620790410056582 2.647119292933887 0  0.3676829480103987 1.68739481709134 0  -0.8886101495223063 2.878912500124773 0  -0.3317793704126089 0.1873756770788371 0  -1.383208664444332 2.577695923010364 0  -1.043597917648523 1.648216005744782 0  -1.362178343413552 1.546177620526679 0  -1.570796326794897 1.7145 0  -0.8462722504471433 1.648434957877788 0  -0.588076822054871 0.3899352838051667 0  1.570796326794897 2.8575 0  -1.570796326794897 0.9525 0  1.570796326794897 0.1905 0  1.570796326794897 1.7145 0  1.570796326794897 0.9525 0  -1.570796326794897 1.3335 0  1.570796326794897 2.4765 0  -1.570796326794897 2.4765 0  0.8103777117362174 0.287468585434799 0  -1.145334531235929 1.881885620422454 0  -0.8620560674467429 0.6361265362229395 0  -0.321688879263093 1.207848147265888 0  -0.7798551871678058 1.904240998338365 0  -0.4724954359209014 1.769587110195458 0  -0.667402576232105 2.495985359319255 0  0.5365063314111709 0.8945566719544227 0  0.1855702280441107 2.342745654422604 0  0.55510120733165 1.88540118775351 0  1.188295809121239 2.460939894898248 0  1.38587897409014 2.260870763688798 0  1.383978812419919 1.901097375082534 0  -0.2265735189171196 1.049795314962436 0  0.7387890113368257 1.246392780742437 0  0.5763234466275948 1.516457524623135 0  -0.203279258075353 0.4348372558382012 0  -1.179202350299698 1.523245956950107 0  -1.151844216720993 2.318990544544152 0  -1.410806081599612 0.6547540757597369 0  0.04190096621848406 2.108399609871347 0  0.5925649981629265 0.4343292987553075 0  0.2371113691258682 0.4102816185532077 0  1.334103818253725 2.657728219912091 0  0.9405077369493808 2.275181409651143 0  -0.633962040105568 2.669303984283053 0  -0.6045614816381242 1.904349918307267 0  1.159697673803787 2.079238591118184 0  -0.004643801590645341 1.347662554528907 0  0.3691400131247499 2.395423267764724 0  0.3855005143298051 2.055603978165229 0  0.01839821075864462 0.1788084577298442 0  -0.9568120219060965 2.61629404172056 0  0.1783135820912846 1.871116340262054 0  0.3649950158263953 2.745288921627024 0  -0.3142054567155264 0.5671999812317062 0  -0.4933549623779417 0.564740705097546 0  0.06092775470575962 2.685867440722903 0  -0.1801827362748675 2.337517890002858 0  -1.063355415037434 0.6386189748554 0  -1.205242865599393 0.8676070232612285 0  -0.4176020549597784 2.412196127179313 0  -0.3347051678178828 2.093252344225509 0  -1.427772711006951 0.2857500000000001 0  0.8835729338221293 0.1362887052191026 0  -0.6831011505337878 0.1389086130988801 0  -1.403875662049666 1.77648180985222 0  1.394165436236593 1.362588987767805 0  -0.5007942298153729 0.8700626692351643 0  -0.6093220848169366 0.7321530406295067 0  0.007534593095922887 1.760126887057542 0  -1.276272015520854 0.140425968067263 0  -0.7270478511000733 2.847016806985676 0  1.436331331726002 0.85725 0  -0.1770320080670663 1.927167796173981 0  0.7200726153501196 0.6345534912379586 0  -1.099983122078282 0.3577316115390257 0  0.2324759135153202 2.648405702327079 0  0.9054371869972004 1.582409569434113 0  0.5000672234640285 1.188708149930449 0  -0.340793734207542
[...]
<PointData  Vectors="phi"> 
<DataArray  type="Float64"  Name="phi"  NumberOfComponents="3" format="ascii">-1.1716810939309923e+00 3.0409281099264693e+00 6.4461292209351789e-04  -1.0160094180029176e+00 1.0228950301488321e-07 -9.7977346859200647e-06  1.0160095449498776e+00 9.0133150044126650e-08 -1.1626366965056509e-05  1.1717597203959493e+00 3.0409037281630487e+00 5.4461463114262602e-04  -5.5365364562881178e-06 3.9595553587010818e-06 1.0160293247270031e+00  -1.3810953220129824e-03 2.4641436540913917e+00 -6.6746292483545255e-01  -1.0880421878463595e+00 1.5117170220504825e+00 -1.7086394668217448e-05  1.0887122196716945e+00 1.5116099926712061e+00 -2.7434594093816211e-05  -4.7226708471140195e-02 1.2706186582811343e+00 2.8669228753366044e-01  7.1842692979284939e-01 -3.5782106650351028e-07 7.1841616646537942e-01  5.7530461025735724e-01 2.1406336783143995e+00 2.1770063740107815e-01  -7.1842459938354097e-01 7.2717596825727817e-07 7.1841768434216802e-01  -5.7094071828307347e-01 2.7963017141118254e+00 -2.1426770043130458e-01  3.8060402604654664e-01 7.6179627777317627e-01 8.4535155389930128e-01  -1.0218173811332751e+00 7.5689198143696856e-01 -2.2643523396053823e-05  -6.2620510811413477e-01 2.0182143926069860e+00 3.3077988403292052e-01  -6.5754007944701942e-01 8.9468305269250659e-01 7.7514123827672410e-01  5.6995050985417661e-01 2.7954836964466483e+00 -2.1654624026595684e-01  6.8188280455211836e-01 1.4542179168098370e+00 5.9717696020269906e-01  -9.9908407612862653e-04 1.8773470623057316e+00 -1.7664716287125223e-01  -1.1714113148397549e+00 2.2726218389380657e+00 7.4186690123742750e-05  1.0219061656683577e+00 7.5686256499738003e-01 -3.0359116991027975e-05  1.1721704238997135e+00 2.2724480504343503e+00 -8.9331836158072864e-05  -8.3641028700256692e-01 1.4729371856722269e+00 5.6078407789620988e-01  8.7936387611275690e-01 8.9911880459568461e-01 5.7145211784045424e-01  -3.9624941739737313e-01 4.0842220053203326e-01 9.3758273135479142e-01  9.9550392239418295e-01 1.8988655711045832e+00 3.6064401293060594e-01  3.2593336612079632e-01 1.6499156599478471e+00 1.9450467853949588e-01  -3.9640218553742362e-01 2.2625797168871178e+00 -1.2642789180073286e-01  3.2022843426110764e-01 2.6102895847420755e+00 -4.7085266137067144e-01  9.3865809023932711e-01 -4.0742108307051135e-07 3.8880539178971002e-01  8.7247592792208328e-01 2.6020243065546458e+00 1.9159867555690455e-01  -8.4501522241833971e-01 2.9678470869524780e+00 2.5281467978576489e-02  -9.3865770725917941e-01 -9.5938333293754188e-08 3.8881457147058202e-01  -1.3868368627856129e-01 7.9123400656598220e-01 7.0835126864566922e-01  -8.4133554893039331e-01 2.4860769990631679e+00 2.2923619872655540e-01  -8.5540997001029284e-01 4.7301328997016406e-01 5.6816959528716149e-01  -3.0709560089997534e-01 1.6729602233780783e+00 1.5401358507560575e-01  -1.1368854788023406e+00 1.8904075991604610e+00 -2.8392667809751961e-05  -9.6628936328412907e-01 1.0264875065312005e+00 4.1400128070545217e-01  7.1752013583036489e-01 4.7682763320199711e-01 7.3947824025707642e-01  3.8881487128775921e-01 1.8030042479488592e-06 9.3866923044531902e-01  -4.2545472360217351e-01 1.2484053764801961e+00 5.8039051155296884e-01  6.4761899826668537e-02 4.5123886329805196e-01 9.7099611434949484e-01  1.9184850849805446e-01 1.0163875573799459e+00 5.4750821741704836e-01  3.3091493198198746e-01 2.2159992985360417e+00 -1.9506071082540374e-01  1.0189573576409927e+00 3.7849469044307610e-01 -1.9466098232005839e-05  9.9872840012500730e-01 1.2895305229274816e+00 3.8209418009323293e-01  9.4775988517337117e-01 5.2822293164098633e-01 3.8894964387084724e-01  6.1496583438583752e-01 1.8050121310067919e+00 4.2516411101261220e-01  5.8722604439556214e-01 1.0875554552967646e+00 7.3135594123590297e-01  -9.9226954882521523e-01 2.1349081129376737e+00 3.1638979292397001e-01  -3.8880259185292987e-01 -3.5714187096485465e-08 9.3866269721725626e-01  -3.2221408364497112e-01 2.6109161918197614e+00 -4.6936667801125975e-01  8.4442299506027196e-01 2.9670632758231106e+00 2.2579412986046696e-02  5.6251912653520297e-01 2.4635621230766604e+00 4.1673803888340613e-03  -1.0388487495017740e+00 1.7072976894493934e+00 3.2745275451869371e-01  -1.0928124341783879e-01 2.1928074471031391e+00 -3.9219945141205254e-01  -1.0420675533034880e+00 1.1348501745325013e+00 -2.2329583019149610e-05  -1.0189543645393335e+00 3.7850926150150660e-01 -2.4684567852410760e-05  1.0424174363471113e+00 1.1347895079513006e+00 -1.3627560185997565e-05  1.1376151001585615e+00 1.8902677960580261e+00 -5.2307127145285937e-05  1.1836415823897515e+00 2.6571350840525287e+00 -8.9476154035525107e-05  -1.1827749896104367e+00 2.6572638256587937e+00 4.9879635523785305e-05  -5.4908646708233555e-01 1.6685112100814969e+00 4.4861609976060496e-01  9.7361169003133452e-01 2.2625264983695743e+00 2.9362294213839507e-01  3.4942779014295988e-01 1.3506502820834683e+00 4.3631945318248438e-01  1.4758667801372086e-02 1.5916178414500093e+00 3.8087689311363790e-02  4.1847644446099708e-01 4.2396572100217994e-01 9.2913102214193799e-01  3.0264178811626197e-01 1.9151256459838462e+00 -2.6058696214996475e-02  -3.0226411789168472e-01 1.9450708400935988e+00 -4.8303719456046196e-02  -9.7156089633151599e-01 6.9634344073096066e-01 3.3547354314445932e-01  -1.0285281292009127e+00 1.3524904867242451e+00 3.0796959043505018e-01  -1.2251467252605214e-01 1.0346980631597156e+00 4.9611278953746557e-01  1.0012070100814248e+00 9.8608311416925509e-01 2.8431504834850513e-01  -7.1612150862552038e-01 1.1980654843032439e+00 6.8034144936630947e-01  8.6125468392450177e-01 2.6514600142770672e-01 5.4751972931273574e-01  1.8255655416604985e-01 2.3327417643479436e+00 -4.4353990389051845e-01  -5.8787000943819179e-01 2.5266165844114652e+00 1.3939472901798868e-04  -3.1430700938452627e-01 1.4236420278584010e+00 3.4442727035498666e-01  9.3973150065873678e-01 1.5959201800830016e+00 4.6335167297207752e-01  -6.1601929192512217e-01 2.2838252350681190e+00 1.8233765741725910e-01  6.7363959515582661e-01 8.0026167898874101e-01 7.7964196303546884e-01  -9.7021993951596741e-01 3.0901949763201875e-01 3.1364800510070689e-01  -6.5090632386811265e-01 5.7004524376345844e-01 8.0248817640582037e-01  -3.9196654539547754e-01 7.1188510490005585e-01 8.7245957211596370e-01  8.3913638006431090e-01 1.1892460761413541e+00 6.1403488950007301e-01  -8.6343918727920521e-01 8.0839885348958840e-01 5.8732322087000077e-01  -7.0393901613149545e-01 2.8979288775257461e-01 7.4186017234464430e-01  -8.0766441783248355e-01 1.8216150360923524e+00 4.6581814094242591e-01  -1.4883068387792237e-01 2.5322550488258866e-01 9.9744330634790423e-01  1.9963393906401350e-01 2.0523722601406758e-01 9.9178561664155207e-01  5.9872440792511883e-01 2.3221843360175518e-01 8.2668598581231911e-01  -3.8060889932396758e-01 9.7990095758413087e-01 7.1537978502613198e-01  7.1617809903548524e-01 2.3771340549265623e+00 2.1567832514531204e-01  6.9298588912612613e-01 2.7072211425477590e+00 1.4093668557901489e-02  4.4689257172005636e-01 2.7022598767780939e+00 -3.4473604758855952e-01  1.6089086787497253e-01 1.4299469314548723e+00 2.0574707146418506e-01  4.5193847859127717e-01 1.8947627467456909e+00 2.0594711521664580e-01  1.0905362621392913e+00 1.7028683076382325e+00 1.9811750272179657e-01  7.8965617410960076e-01 2.0733881866813371e+00 3.7406527701806364e-01  -1.0241180947291790e+00 3.0247074728549110e+00 9.8698033065978297e-02  -9.8614534796454101e-01 2.7385078581526976e+00 1.6654363433336195e-01  1.0378122682318947e+00 2.8168100777285079e+00 1.4166783551298048e-01  9.8244846216631565e-01 2.6345230286801657e-01 2.7025441218943547e-01  1.3848362698148778e-01 7.9354991439050326e-01 7.0562225261964839e-01  -4.3270672397053289e-01 2.5152648252260636e+00 -2.3248010151204002e-01  1.1001246546250267e+00 2.4719325203042111e+00 1.7711611639275299e-01  -1.4879372450648676e-01 5.9530725202052659e-01 8.9173901063663863e-01  -1.0705579742577100e+00 2.3677376277031712e+00 2.1831538008299636e-01  4.6420850187483526e-01 1.5874791030567208e+00 4.1276097123713840e-01  1.1574038768905208e+00 2.0809949221552033e+00 -2.3532380192655388e-05  4.1828832385350295e-01 2.4673119818815459e+00 -2.2352117306375954e-01  -8.4477546846013996e-01 1.6984675540375518e-07 5.6446292323066605e-01  -4.5703548347864348e-01 2.1131842883066341e+00 7.2117641330983681e-02  1.2029736537758581e-01 2.0836422928140146e+00 -3.0418119146591283e-01  -6.9915009129436079e-01 2.8869208998904337e+00 -8.8674697367730662e-02  -4.4365031846896469e-01 1.8892393903984284e+00 1.9803307652497726e-01  -1.0108392250938036e+00 9.0180082732343847e-01 2.0256496850607958e-01  -9.2739189578543735e-01 1.2491934439048629e+00 5.1307567431290158e-01  -1.6273957842996295e-01 1.7447578108612274e+00 -2.9806170257290956e-02  -7.5926512474748109e-01 2.6753317165163022e+00 9.9466516966841625e-02  -1.5891461554907552e-01 1.4805281269696211e+00 1.6598116520235084e-01  -2.7297936632068953e-01 2.3824998250433600e+00 -3.7967361280031148e-01  4.2833391232223100e-01 2.1266986637465797e+00 1.5791289569415265e-02  -6.1126909365497373e-01 1.4020660142345160e+00 6.0729982582314590e-01  8.1990838891951201e-01 6.7296865518942972e-01 6.3707040756307476e-01  -8.5200350588025686e-01 2.3638809325807111e-01 5.6064327938397440e-01  9.9442933908037745e-01 7.3684094477404738e-01 2.5390887928929590e-01  5.5266217053031896e-01 6.1108543021329242e-01 8.6263583993842852e-01  5.0448683720020338e-01 1.2855604425564211e+00 6.1551729620102469e-01  -5.1594885757240250e-01 2.0393620674868140e-01 8.7906485847130889e-01  -2.4688302899439499e-01 2.0997225098182004e+00 -2.2072227427393615e-01  -1.0196602473032652e+00 5.6770887029970185e-01 -1.5132946444179393e-05  -2.3200837277447914e-01 1.2209912074254070e+00 4.1594753327945544e-01  2.5318081798385378e-01 5.8128256394310063e-01 9.1945164870743934e-01  1.0469878673608193e+00 1.4950510404504536e+00 2.8830182668934684e-01  1.0636294386816401e+00 1.3232106139525712e+00 -1.6047811071639589e-05  -7.7372755023519457e-01 2.1955626595218609e+00 3.2475485247181290e-01  8.8509021481392969e-01 1.3960139604811679e+00 5.4431085288878356e-01  -9.9647555416099576e-01 -5.4704736173721224e-07 1.9820685209706121e-01  3.7011518125029846e-01 9.6932945744229981e-01 7.1486860565500732e-01  1.6351232842839197e-01 1.1977655965389431e+00 3.8641829607087436e-01  -1.0883771006961389e+00 1.9283640794656198e+00 2.3636664616523012e-01  2.0156033301384826e-01 1.7171392862240895e+00 1.7447320052095934e-02  1.0196955579206453e+00 5.6768536055169794e-01 -2.7748756357594685e-05  1.0924092249287487e+00 2.0710691154605398e+00 2.2756162881841804e-01  -8.5292356255923518e-01 1.0337741584745694e+00 6.1258174365653428e-01  -1.0253096207276284e+00 1.1433962338593433e+00 2.2755158908996764e-01  -1.0177839149877215e+00 1.8929246170330877e-01 -3.3460181039212106e-05  9.5222443902711706e-01 1.0961768914815515e+00 4.6074861613226886e-01  4.1204660138105903e-01 2.1142709871092991e-01 9.3063568074777825e-01  -1.1564992599428594e+00 2.0811173539642267e+00 -2.8854917179683302e-05  8.5248088788103638e-01 4.7419999318980366e-01 5.7302255642858912e-01  1.0011489945418268e+00 4.5761740551072877e-01 1.9604042775301056e-01  9.2780624975053061e-01 7.2687510769021724e-01 4.5777475802072731e-01  3.3607938047035341e-01 1.1724763841667409e+00 5.4771108492020859e-01  8.3179345480108502e-01 1.7907474467103410e+00 4.7084401567597312e-01  -2.0934758368010005e-03 8.9274450807046213e-01 5.8863498138000236e-01  1.0322653478002519e+00 1.1778255827165149e+00 2.0733317495878981e-01  -1.0026854157197058e+00 4.7326855277567970e-01 1.8809827979019067e-01  5.8316998585269501e-02 6.3580366834404378e-01 8.3359333731991525e-01  -9.4813634414288162e-01 4.9723706121761213e-01 3.8561901472804005e-01  -5.6355236715830881e-01 1.0713845425361690e+00 7.3704787218825540e-01  -8.4258234628165585e-01 2.0144774034199058e+00 3.9803586479810066e-01  -1.1795809348471378e+00 2.8495797453480103e+00 1.7350018130546312e-04  7.6797702317723837e-01 1.0147688772488568e+00 6.9220421512679453e-01  5.5716290371897170e-01 2.6252869355673139e+00 -1.1308326143259508e-01  -4.4835921569928366e-01 1.4250687823162771e+00 4.9447018188823677e-01  5.9290455627425054e-01 1.9745981662865577e+00 3.2489484515592471e-01  6.3216300737973752e-01 1.6283438859177273e+00 5.1461985659016296e-01  -1.8109110780497398e-01 2.5244788099838211e+00 -5.8640937342779165e-01  -6.7984661898969562e-03 2.3189786089467632e+00 -5.1796708123462565e-01  -1.1233721900055205e+00 2.1792725268583943e+00 1.7132055897673931e-01  9.9647645899844250e-01 -5.4022256957123177e-07 1.9820960060281972e-01  6.9847012139271381e-01 2.8860910317626267e+00 -9.1309183515980774e-02  1.9820866180948202e-01 2.9978879435018569e-07 9.9648816967279374e-01  -1.9821528873299066e-01 -1.2344863971656672e-06 9.9647968849104696e-01  5.6445675034198051e-01 1.1854320187859836e-07 8.4477585001574618e-01  1.7851120773789642e-01 2.5241004420657456e+00 -5.8739270469950544e-01  8.4477844524802781e-01 -1.6779839776098101e-07 5.6446218640246870e-01  1.0231831795966704e+00 3.0245486388964857e+00 9.6773568372570784e-02  -4.4837781812771116e-01 2.7029643342284713e+00 -3.4287208012776643e-01  -5.6446299229175256e-01 -8.0165374359961643e-07 8.4477270769022095e-01  -7.0257481885053222e-02 2.0307465209339912e+00 -2.8324246905860995e-01  8.5007728240416480e-01 2.7761776465070147e+00 1.1057807450846908e-01  4.4811691855808072e-01 2.3319553581248651e+00 -8.7309052371174256e-02  5.6716391631103091e-01 2.3028958890487399e+00 1.1235894597962054e-01  7.0109163792224527e-01 2.5440496522199600e+00 1.1784542542412123e-01  3.2682722484297944e-01 1.4936886445631077e+00 3.0841436519745652e-01  -6.3889699173243653e-01 2.7065351342312320e+00 -5.0367531956406836e-02  -3.3339187655198621e-01 1.8835143822131459e-01 9.5960827345888267e-01  -1.1001533893657420e+00 2.5663996768582451e+00 1.6428186413921034e-01  -9.1070336754924042e-01 1.6459385398215169e+00 4.7720412645809218e-01  -1.0706382192522861e+00 1.5355804356896348e+00 2.1111637267244937e-01  -1.1133833719397614e+00 1.7006613686060026e+00 -2.3173779898225126e-05  -7.2271853462708957e-01 1.6315840189520672e+00 5.3469400058409744e-01  -5.7406174626218776e-01 3.9119625654672985e-01 8.5041791051056381e-01  1.1803778819812418e+00 2.8494954319817771e+00 -2.4844822213962220e-06  -1.0282831410549931e+00 9.4601011227335752e-01 -1.6811782401793400e-05  1.0177791960881293e+00 1.8928544115934345e-01 -2.9316522138663088e-05  1.1141702386193715e+00 1.7005296814864390e+00 -1.6618498328654870e-05  1.0284477254483131e+00 9.4597048064905409e-01 -4.7175971721683595e-05  -1.0630941509285459e+00 1.3232942907399130e+00 -2.8086626071811637e-05  1.1808781647530573e+00 2.4646705016352732e+00 -4.1417795039571273e-05  -1.1800230601316419e+00 2.4647999692254907e+00 8.6214072789451250e-05  7.4231670060410260e-01 2.8732166139491011e-01 7.0302591648312451e-01  -9.7238990008098058e-01 1.8763790129731412e+00 3.8453116296805145e-01  -7.9213714517796929e-01 6.3598805026609018e-01 6.6922482056968924e-01  -2.9956228697593346e-01 1.0927886675796477e+00 5.7227526074010382e-01  -6.2312989652031625e-01 1.8436961006266264e+00 4.1322405012864455e-01  -3.9970640785384065e-01 1.6065018694927278e+00 3.2272437379829244e-01  -5.0309413947454562e-01 2.2911876905088997e+00 2.9273772182060943e-02  5.1328731830754704e-01 8.8984252181347578e-01 8.0529893261093455e-01  1.7876556874791694e-01 1.9525436688335611e+00 -1.7272349293853792e-01  4.5109096794194531e-01 1.7377859040893666e+00 3.0496111273224891e-01  9.3402072323388896e-01 2.4386933587319350e+00 2.5334754594892034e-01  1.1188831062047830e+00 2.2496703649218945e+00 1.7755791483361300e-01  1.1080361739244351e+00 1.8890854844448657e+00 1.8671976338944835e-01  -2.1962198330722688e-01 9.3711337803354644e-01 6.3005787488803944e-01  6.7349794934242668e-01 1.2416842539653168e+00 6.7374444976801229e-01  4.8881190031740401e-01 1.4413114337666908e+00 5.2052594232126737e-01  -2.0710406460856315e-01 4.3504702804860290e-01 9.7229276000954934e-01  -1.0060381163775050e+00 1.5179653907354420e+00 3.8595888018414182e-01  -9.2100854794420606e-01 2.3002931767607016e+00 2.9826717684668630e-01  -1.0088252727929041e+00 6.5056953507402271e-01 1.6220614639036757e-01  4.1413200650432580e-02 1.7370142454806110e+00 -6.8513631440668812e-02  5.7955908100067444e-01 4.3581904055547188e-01 8.4847549824710999e-01  2.4169521516553624e-01 4.1133506209400433e-01 9.7250264322961455e-01  1.0469041088343549e+00 2.6425108136267341e+00 1.7847707433453885e-01  7.2051887770816858e-01 2.2166660810381518e+00 2.9314689212373007e-01  -4.7894638866357225e-01 2.4170468507932652e+00 -9.2507935205413463e-02  -4.8497753376320718e-01 1.7757602197923605e+00 3.2531440475432655e-01  9.6288432006829305e-01 2.0699826149549931e+00 3.4630083450161664e-01  -5.2826449179911080e-03 1.1297890282174670e+00 3.9391758454519704e-01  3.2065731887914878e-01 2.0662805200678926e+00 -1.0862739563699328e-01  3.3557211247910168e-01 1.7980714326860461e+00 1.0087754381334686e-01  1.8770327764415798e-02 1.7966328554916189e-01 1.0091443445245127e+00  -6.9954703987251665e-01 2.5166567735850909e+00 1.3381252910958774e-01  1.7315867338132507e-01 1.5712414987553824e+00 1.0645068961055824e-01  3.0867382926679204e-01 2.3510877665893664e+00 -3.1281119224469628e-01  -3.1537843835855328e-01 5.6599612364924901e-01 9.2886357006435871e-01  -4.9304479544257290e-01 5.6741312115895559e-01 8.9237561812268185e-01  6.0157749646043285e-02 2.1993441234421041e+00 -4.1511914661981386e-01  -1.7587205203032702e-01 1.9470509456937284e+00 -1.7101411774099939e-01  -9.0349729325145534e-01 6.3638926236221427e-01 4.9796701924408887e-01  -9.7051523018997155e-01 8.6327795782031269e-01 3.6639075157519896e-01  -3.5368931489604927e-01 2.1027160648769656e+00 -8.6892395555763585e-02  -3.0106649519444151e-01 1.8065673633727168e+00 4.9772611714519563e-02  -1.0083270724151805e+00 2.8395195154291181e-01 1.4512975256858215e-01  7.8722769774065005e-01 1.3602174024959904e-01 6.4524359250713936e-01  -6.4355842186270151e-01 1.3904762943551702e-01 7.8888204794523265e-01  -1.1029539630914373e+00 1.7641352574103397e+00 1.6841063121578229e-01  1.0557234578302532e+00 1.3528241305754736e+00 1.7944049514638744e-01  -4.8009670301261059e-01 8.6310564625352215e-01 8.1504237222374354e-01  -5.9758127344015577e-01 7.3537124259920594e-01 8.2846846593218337e-01  6.8833522603504692e-03 1.4566824802318665e+00 1.3982998259897786e-01  -9.7360538835855470e-01 1.3963737933851489e-01 2.9524416295202383e-01  -5.3386727750342233e-01 2.6062784588657046e+00 -1.3436906145960542e-01  1.0172961792458208e+00 8.5162159959249339e-01 1.3650689520908552e-01  -1.7349213459744744e-01 1.6160513644958447e+00 7.2839404948079042e-02  6.9107694024552557e-01 6.3615033707777913e-01 7.7200789317334673e-01  -9.1104296781851113e-01 3.5619102597572616e-01 4.6255749836116017e-01  2.1540973674687486e-01 2.2156769925593913e+00 -3.3235565917328824e-01  7.9127095219413701e-01 1.5766404907195566e+00 5.4678213513695029e-01  4.4964197552440222e-01 1.1400370135048996e+00 6.6167199696235979e-01  -2.9761694546422729e-01 2.2561331193922691e+00 -2.6758811110153463e-01  7.2247135222366410e-01 1.9297756225312066e+00 4.1673676234554724e-01  9.7352973116807862e-01 1.7449348296008027e+00 4.0716614929645767e-01  -7.4682660594092110e-01 4.5715251201293422e-01 7.0795016633574004e-01  2.0628458601781383e-01 7.0085362961169884e-01 8.2110974242626600e-01  -5.1613127954585514e-01 2.0381192864322761e+00 2.0751393716978025e-01  -5.5634576375765088e-01 1.2188837212577686e+00 6.7196853158763215e-01  -7.2345358726345876e-01 1.0365233955827613e+00 7.1637516064786233e-01  -7.6040640676391669e-01 1.3444694036394651e+00 6.2557290374220564e-01  9.5286172196009433e-01 9.3900447641359963e-01 4.3207364063365888e-01  -9.9058346842472822e-01 1.1816731817384205e+00 3.8123671881971444e-01  8.9736107878090698e-01 1.2532705586843218e-01 4.7938343876734124e-01  9.1608395853635249e-01 3.8472782612216871e-01 4.5376938391973876e-01  -5.6409064101359163e-01 1.5315373721163725e+00 5.2770441193851880e-01  9.8177419592775017e-01 1.4479307723890646e+00 4.2742409291004846e-01  -7.68