<?xml version="1.0"?>
<VTKFile type="UnstructuredGrid"  version="0.1"  >
<UnstructuredGrid>
<Piece  NumberOfPoints="758" NumberOfCells="1386">
<Points>
<DataArray  type="Float64"  NumberOfComponents="3"  format="ascii">-1.570796326794897 3.048 0  -1.570796326794897 0 0  1.570796326794897 0 0  1.570796326794897 3.048 0  0 0 0  0 3.048 0  -1.570796326794897 1.524 0  1.570796326794897 1.524 0  -0.04609926118424437 1.524 0  0.7853981633974483 0 0  0.7623485328053261 2.262242601661362 0  -0.7853981633974483 0 0  -0.7853981633974483 3.048 0  0.392699081698724 0.7745759241961347 0  -1.570796326794897 0.762 0  -0.8084477939895706 2.0955 0  -0.68277245543452 0.8915343570675713 0  0.7853981633974483 3.048 0  0.778743707341909 1.468410948960538 0  2.780093748954961e-16 2.285302774973185 0  -1.570796326794897 2.286 0  1.570796326794897 0.762 0  1.570796326794897 2.286 0  -0.9375370967763674 1.47348297960658 0  0.9831575747762593 0.9003629142671278 0  -0.3926990816987241 0.4064697549061488 0  1.177419588818055 1.905 0  0.3692901340097942 1.880893989147954 0  -0.4920225169641509 2.564371687128368 0  0.3926990816987241 3.048 0  1.178097245096172 0 0  1.155705348811136 2.643920532523289 0  -1.178097245096172 3.048 0  -1.178097245096172 0 0  -0.1391296372266528 0.8873724190154949 0  -1.10527745318919 2.528282743051346 0  -0.9817477042468103 0.4742759268549471 0  -0.3416666987802651 1.923944646262223 0  -1.570796326794897 1.905 0  -1.156555306160469 1.030861936336814 0  0.7648449098493205 0.4764142032227 0  0.3926990816987241 0 0  -0.4820376416180818 1.326151321396512 0  0.06374421723344185 0.4545169930886408 0  0.1972735722393064 1.163324878565267 0  0.3900417218314142 2.566922767651637 0  1.570796326794897 0.381 0  1.188877612935585 1.295195418509834 0  1.179914028402171 0.5308585702661928 0  0.7660075594126428 1.865233039449035 0  0.6330293131838399 1.095171663968746 0  -1.201232463242587 2.144287146570887 0  -0.3926990816987241 0 0  -0.3926990816987241 3.048 0  1.178097245096172 3.048 0  0.7684409382397209 2.649499271873753 0  -1.236954997304436 1.7145 0  -0.1088573452899617 2.666651387486592 0  -1.570796326794897 1.143 0  -1.570796326794897 0.381 0  1.570796326794897 1.143 0  1.570796326794897 1.905 0  1.570796326794897 2.667 0  -1.570796326794897 2.667 0  -0.6730839067294777 1.743003792473746 0  1.199831389396789 2.275437921225198 0  0.3936837537618041 1.495643752599615 0  0.01539369169800942 1.928544709491661 0  0.4156551272669651 0.4219033286010089 0  0.3401546043708642 2.225103550856524 0  -0.3379897306391274 2.262671266279809 0  -1.23624174049596 0.7000907110925838 0  -1.265224057170889 1.360131453617764 0  -0.1224339018241312 1.210043725539656 0  1.289286200625578 0.9918698881707442 0  -0.7751142346211329 1.197848666814478 0  1.003546186550495 0.2660297686099683 0  0.1963495408493621 2.808538634159524 0  -0.8079023568959116 2.703551618159924 0  -0.3480226984353056 1.610059855391589 0  1.075147893506229 1.598068412087719 0  -0.8290627893979112 2.399544545867518 0  0.6965048925255637 0.7972100472372819 0  -1.257765094876752 0.3107645483825858 0  -0.6724835324263325 0.5684215760013651 0  -0.3995059642389676 0.7173610149075536 0  0.9136951972244611 1.187564504803626 0  -0.964259350608907 0.8095514380783081 0  -0.7565990314517038 0.2897049735129544 0  -0.9603859887840651 1.834914433810327 0  -0.1457055965762301 0.2521630699436873 0  0.1963495408493621 0.2041911848053476 0  0.6241974196550791 0.231695999252114 0  -0.4098815011312292 1.029160072548571 0  0.9592800715482012 2.452820690856482 0  0.9648684169153161 2.840751931000357 0  0.5890486225480862 3.048 0  0.164631037784102 1.698913854044779 0  0.5664480837073581 2.070920238540226 0  1.374107957806476 1.7145 0  0.9861079629544779 2.102471438422718 0  -1.374446785945534 3.048 0  -1.288827800789186 2.762781313597598 0  1.353232957571468 2.835634774483438 0  1.302158670506274 0.2650078124691045 0  0.1394669809465775 0.8907702620243092 0  -0.5631487221059602 2.830992231257464 0  1.372837635547072 2.483038902756259 0  -0.1493395228831287 0.618617259260858 0  -1.32327048447753 2.378769394323546 0  0.56080204725298 1.699622905297025 0  1.570796326794897 2.0955 0  0.5403456747786348 2.786446773498672 0  -0.9817477042468103 0 0  -0.5847039960246873 2.326882432521036 0  0.1225428891326576 2.526494255738436 0  -0.9817477042468103 3.048 0  -0.5522901559753841 2.071668786267058 0  -1.370864794258017 0.9075071715671403 0  -1.043891045637083 1.250611220450313 0  -0.1652643923634778 2.09141301924679 0  -1.044446740946883 2.764982067459552 0  -0.1610370079820225 1.763280243096074 0  -0.3136912237752232 2.810498886211121 0  0.5400974078002052 2.370472734822523 0  -0.7009161718414544 1.427243880175582 0  0.902907438200502 0.6735032943420574 0  -0.9879196222361604 0.2371379634274736 0  1.319268546233604 0.7412771512308228 0  0.5578373583610097 0.608241627784878 0  0.5756483102040615 1.332636919938113 0  -0.5281701577409 0.2032348774530744 0  -0.266729509930448 2.489223923247521 0  -1.570796326794897 0.5715 0  -0.2430656531629531 1.405631921096758 0  0.253622337931223 0.5884397663452474 0  1.284044721043478 1.50372037617638 0  1.570796326794897 1.3335 0  -0.9904333867980613 2.235882060371517 0  0.9871146764618406 1.395690276854986 0  -1.374446785945534 0 0  0.3981951765262902 1.020833864419675 0  0.1670583512016766 1.405384478716078 0  -1.330327693484763 1.938638984813805 0  0.2106653067452682 2.040805097078886 0  1.570796326794897 0.5715 0  1.334822181490566 2.081373939821734 0  -0.9303227889097604 1.033236710715967 0  -1.34639228476592 1.150776798768373 0  -1.570796326794897 0.1905 0  1.106697207481837 1.099709897393925 0  0.4137866939027022 0.2104288000383385 0  -1.570796326794897 2.0955 0  0.9761377489246634 0.4754251272674608 0  1.377108465632662 0.4605024587280874 0  1.108114944719677 0.7297638044096917 0  0.3695908229138113 1.285681859811955 0  0.9799112840676307 1.800306505551499 0  -0.001696842075803034 1.042028929293442 0  1.366537356420357 1.185723700290463 0  -1.385029840108318 0.47625 0  0.05842649915411911 0.6874537157920781 0  -1.183268988745763 0.4997334438341218 0  -0.6073502281622543 1.081347079085406 0  -1.026941765261019 2.031536576622642 0  -1.570796326794897 2.8575 0  0.8159726599830506 1.011928543199529 0  0.7652782693277244 2.849245002237192 0  -0.5252326280373281 1.520125074885265 0  0.7648326174724897 2.063743853392348 0  0.757099741434616 1.666331708950521 0  -0.1963495408493621 3.048 0  -0.005410422648647092 2.843333256403111 0  -1.395368347654653 2.19075 0  1.374446785945534 0 0  0.9817477042468103 3.048 0  0.1963495408493621 0 0  -0.1963495408493621 0 0  0.5890486225480862 0 0  0.1963495408493621 3.048 0  0.9817477042468103 0 0  1.374446785945534 3.048 0  -0.5890486225480862 3.048 0  -0.5890486225480862 0 0  -0.06865319188571758 2.471928549109083 0  1.159049337209348 2.838090892449816 0  0.5817075150535711 2.596909954318943 0  0.7656515661107315 2.455866896253367 0  0.9620790410056582 2.647119292933887 0  0.3676829480103987 1.68739481709134 0  -0.8886101495223063 2.878912500124773 0  -0.3317793704126089 0.1873756770788371 0  -1.383208664444332 2.577695923010364 0  -1.043597917648523 1.648216005744782 0  -1.362178343413552 1.546177620526679 0  -1.570796326794897 1.7145 0  -0.8462722504471433 1.648434957877788 0  -0.588076822054871 0.3899352838051667 0  1.570796326794897 2.8575 0  -1.570796326794897 0.9525 0  1.570796326794897 0.1905 0  1.570796326794897 1.7145 0  1.570796326794897 0.9525 0  -1.570796326794897 1.3335 0  1.570796326794897 2.4765 0  -1.570796326794897 2.4765 0  0.8103777117362174 0.287468585434799 0  -1.145334531235929 1.881885620422454 0  -0.8620560674467429 0.6361265362229395 0  -0.321688879263093 1.207848147265888 0  -0.7798551871678058 1.904240998338365 0  -0.4724954359209014 1.769587110195458 0  -0.667402576232105 2.495985359319255 0  0.5365063314111709 0.8945566719544227 0  0.1855702280441107 2.342745654422604 0  0.55510120733165 1.88540118775351 0  1.188295809121239 2.460939894898248 0  1.38587897409014 2.260870763688798 0  1.383978812419919 1.901097375082534 0  -0.2265735189171196 1.049795314962436 0  0.7387890113368257 1.246392780742437 0  0.5763234466275948 1.516457524623135 0  -0.203279258075353 0.4348372558382012 0  -1.179202350299698 1.523245956950107 0  -1.151844216720993 2.318990544544152 0  -1.410806081599612 0.6547540757597369 0  0.04190096621848406 2.108399609871347 0  0.5925649981629265 0.4343292987553075 0  0.2371113691258682 0.4102816185532077 0  1.334103818253725 2.657728219912091 0  0.9405077369493808 2.275181409651143 0  -0.633962040105568 2.669303984283053 0  -0.6045614816381242 1.904349918307267 0  1.159697673803787 2.079238591118184 0  -0.004643801590645341 1.347662554528907 0  0.3691400131247499 2.395423267764724 0  0.3855005143298051 2.055603978165229 0  0.01839821075864462 0.1788084577298442 0  -0.9568120219060965 2.61629404172056 0  0.1783135820912846 1.871116340262054 0  0.3649950158263953 2.745288921627024 0  -0.3142054567155264 0.5671999812317062 0  -0.4933549623779417 0.564740705097546 0  0.06092775470575962 2.685867440722903 0  -0.1801827362748675 2.337517890002858 0  -1.063355415037434 0.6386189748554 0  -1.205242865599393 0.8676070232612285 0  -0.4176020549597784 2.412196127179313 0  -0.3347051678178828 2.093252344225509 0  -1.427772711006951 0.2857500000000001 0  0.8835729338221293 0.1362887052191026 0  -0.6831011505337878 0.1389086130988801 0  -1.403875662049666 1.77648180985222 0  1.394165436236593 1.362588987767805 0  -0.5007942298153729 0.8700626692351643 0  -0.6093220848169366 0.7321530406295067 0  0.007534593095922887 1.760126887057542 0  -1.276272015520854 0.140425968067263 0  -0.7270478511000733 2.847016806985676 0  1.436331331726002 0.85725 0  -0.1770320080670663 1.927167796173981 0  0.7200726153501196 0.6345534912379586 0  -1.099983122078282 0.3577316115390257 0  0.2324759135153202 2.648405702327079 0  0.9054371869972004 1.582409569434113 0  0.5000672234640285 1.188708149930449 0  -0.340793734207542
[...]
<PointData  Vectors="phi"> 
<DataArray  type="Float64"  Name="phi"  NumberOfComponents="3" format="ascii">-1.2368008000242552e+00 3.0155483960864324e+00 1.7729687653855332e-05  -1.0160125235089794e+00 -3.4884862268173993e-08 -9.0566913899295230e-06  1.0160125720233186e+00 -4.1680765001632275e-08 -1.0876422209443203e-05  1.2368512849497069e+00 3.0155368368022661e+00 1.4768338598426456e-05  -5.8776279993171561e-06 8.7405102180166522e-08 1.0160197621109304e+00  1.7399217265583167e-05 2.7622003855298467e+00 1.9939857660250582e-02  -1.0559753738043871e+00 1.5098065738452615e+00 -1.7664354456613572e-05  1.0560521418049695e+00 1.5097922348304083e+00 -2.5656164012779435e-05  -4.7053139949735256e-02 1.5301350693186104e+00 9.0804624750039764e-01  7.1842708626797036e-01 -6.9204193518053544e-08 7.1841686221124024e-01  7.3200300978395050e-01 2.2615727941021682e+00 6.4906282329105891e-01  -7.1842440124846974e-01 -3.9811553863747015e-07 7.1841899544556387e-01  -6.8426012722227647e-01 2.9927379509604450e+00 3.6403417540826771e-01  3.9288987117275187e-01 7.7973936247887277e-01 9.1779612557760848e-01  -1.0256425384276022e+00 7.5490128864442518e-01 -2.1094908182628749e-05  -7.8559343061413578e-01 2.0972176465291130e+00 6.6571991285588406e-01  -6.5799237058386806e-01 8.9249883996516310e-01 7.8626626757843765e-01  6.8430006814289013e-01 2.9926305212625586e+00 3.6360645399108216e-01  7.5017174550790422e-01 1.4686396675852409e+00 7.1746585316147893e-01  -5.4199574063503555e-05 2.1499310898673820e+00 4.7633625922643197e-01  -1.1254391791607430e+00 2.2632846068995067e+00 -2.0370983669840453e-05  1.0256602296553321e+00 7.5489509770209884e-01 -3.0672943809643842e-05  1.1255266812854638e+00 2.2632708029703710e+00 -5.0804346928036826e-05  -8.6359296529978746e-01 1.4691298475628456e+00 6.0313532923880064e-01  8.6858113530816150e-01 8.9601339794390378e-01 5.6759274186570741e-01  -3.9040384272089385e-01 4.0938676363759174e-01 9.3053743132214040e-01  1.0124424552347513e+00 1.8924519161505211e+00 3.9143822263399075e-01  3.6481401555751147e-01 1.8717682844739651e+00 7.8025654991642113e-01  -4.5156699252908050e-01 2.4873673346873311e+00 4.7466773696799935e-01  3.5681019199397890e-01 2.8656260509243494e+00 1.7122070708905412e-01  9.3865701307758820e-01 -4.0728607376322442e-07 3.8880540334033648e-01  1.0546011662344843e+00 2.6301560406913942e+00 3.9476190658166493e-01  -1.0663677601677197e+00 3.0318126051980343e+00 3.4343219514503082e-01  -9.3865626288814330e-01 -3.7101319897639779e-07 3.8881423288477579e-01  -1.4099848580550811e-01 8.9506968540395626e-01 9.5889805410886508e-01  -1.0189115671811826e+00 2.5173882281110815e+00 4.4081321451647498e-01  -8.5417406403047424e-01 4.7167574103085880e-01 5.6715725773310621e-01  -3.3623898631783405e-01 1.9050559709212387e+00 7.5372794431419243e-01  -1.0832443831494984e+00 1.8870244621302572e+00 -2.4038619482901058e-05  -9.5543709595909976e-01 1.0235876992647972e+00 4.1192759452409017e-01  7.1228779262427055e-01 4.7574495642629411e-01 7.3527359114703539e-01  3.8881367619378265e-01 7.6284229151072775e-07 9.3866674777396253e-01  -4.8399520967421278e-01 1.3324228526115600e+00 8.6530863929371027e-01  6.4516547447983588e-02 4.5951567594148290e-01 9.9156556511299854e-01  2.0027604600789345e-01 1.1716662275377381e+00 9.3471479139592761e-01  3.6404714925509335e-01 2.4586733963742513e+00 4.2742122753358153e-01  1.0212031747459560e+00 3.7743492163339021e-01 -1.9609021519176626e-05  9.7883006889841362e-01 1.2859040698408528e+00 3.8131446408344954e-01  9.4860047474109244e-01 5.2672756258308551e-01 3.8882042445813275e-01  7.5085757783813989e-01 1.8677154911904694e+00 7.1110685967860521e-01  6.1963743543423477e-01 1.0977336381222196e+00 8.0961206683401676e-01  -1.0429620666037580e+00 2.1296122619677345e+00 3.6826812725877928e-01  -3.8880211800113351e-01 -1.2699043642821874e-07 9.3865698105105033e-01  -3.5677412942935516e-01 2.8657487806524440e+00 1.7152074162533515e-01  1.0665637652084008e+00 3.0317525168915260e+00 3.4349134472310611e-01  7.0227586021437294e-01 2.6275557432810581e+00 5.2335454091041322e-01  -1.0184472425900843e+00 1.7017404251524684e+00 3.3470796447121037e-01  -1.0931378325268787e-01 2.4698567839807763e+00 2.6754226000622006e-01  -1.0370058973083844e+00 1.1323814079826120e+00 -2.5427151719133875e-05  -1.0212102334229793e+00 3.7743779707370717e-01 -2.4619020789363391e-05  1.0370570670286159e+00 1.1323703596374308e+00 -1.1355009377356170e-05  1.0833263007396805e+00 1.8870059010156599e+00 -4.9476879212621007e-05  1.1815851374547750e+00 2.6387485661295229e+00 -2.9275196675589294e-05  -1.1814171794408828e+00 2.6387849960256093e+00 -1.4406436452265272e-05  -6.6802253587716576e-01 1.7475295556826418e+00 7.6689590863247215e-01  1.0549661942731734e+00 2.2601276215499060e+00 3.6851719327434446e-01  3.9943638156345784e-01 1.5033783034359129e+00 8.8059515437651337e-01  1.5496169350272560e-02 1.8665511820407101e+00 6.9346876619610009e-01  4.1228131147555674e-01 4.2473161212661087e-01 9.2195042816119133e-01  3.2743762067045656e-01 2.1572315892506180e+00 5.9073710460350703e-01  -3.2502537127396985e-01 2.1877296361174077e+00 5.6906562438392438e-01  -9.7207587918772609e-01 6.9441316442345813e-01 3.3521582124261012e-01  -1.0059273235728026e+00 1.3493675397495877e+00 3.0742577719673797e-01  -1.2462243154018607e-01 1.2186770840119781e+00 9.3845096789630122e-01  9.9629670124863101e-01 9.8361405945773750e-01 2.8369767498923781e-01  -7.3948659419199669e-01 1.1974745526672119e+00 7.2444134090798717e-01  8.6135919766101299e-01 2.6444160525170174e-01 5.4745668177651807e-01  1.9138408874070240e-01 2.6053593571829641e+00 2.1358737881263862e-01  -7.3644006471213230e-01 2.6832008598626769e+00 5.0779028609641952e-01  -3.5307015605044040e-01 1.6170611198783664e+00 8.7361623474785322e-01  9.4683881071703246e-01 1.5896974336340015e+00 4.8602334781124323e-01  -7.8668863858644533e-01 2.3966708007881303e+00 6.0017988305478265e-01  6.6710711881554430e-01 7.9773174300821703e-01 7.7909383974280433e-01  -9.7162402987116969e-01 3.0814275483914683e-01 3.1384028274787767e-01  -6.4238631823292669e-01 5.6890164553937295e-01 7.9525591058044642e-01  -3.9910625459945376e-01 7.2213187480421581e-01 9.1811078783850064e-01  8.3746879088811499e-01 1.1839255554051042e+00 6.2406772821884560e-01  -8.5460406347391926e-01 8.0576449482054480e-01 5.8333178401849650e-01  -7.0184714242507407e-01 2.8926936636815775e-01 7.4024785745485056e-01  -8.9629009576751961e-01 1.8299893586327827e+00 5.8144149548495705e-01  -1.4721404757313677e-01 2.5499110206808701e-01 9.9499297373761553e-01  1.9793892047423073e-01 2.0639665567825291e-01 9.8934209234205950e-01  5.9622324358196199e-01 2.3205975099996148e-01 8.2451556525461855e-01  -4.1125881072692066e-01 1.0352777800204094e+00 9.0109134717990946e-01  9.0537516109754235e-01 2.4486148711156419e+00 5.4114107025051494e-01  8.8055542295083689e-01 2.8275576903708703e+00 4.5863903844666065e-01  5.1460099422965266e-01 2.9338721756276014e+00 2.7486207528731460e-01  1.6561447723137074e-01 1.6940107516660496e+00 8.4509781831943664e-01  5.5040129573971619e-01 2.0669467785311872e+00 7.2300638447472132e-01  1.0515717604635255e+00 1.6995674137764749e+00 1.9923969771769115e-01  9.2671630741243038e-01 2.0970482706582891e+00 5.5459090861766236e-01  -1.1946529320573325e+00 3.0211507075675041e+00 1.9341285798751426e-01  -1.1344378209296242e+00 2.7413141884106929e+00 2.7731564684094601e-01  1.1673772039713730e+00 2.8106387701177238e+00 2.1623461051411313e-01  9.8379550607145627e-01 2.6271129759245843e-01 2.7042985960125832e-01  1.4129465778004355e-01 8.9848282268076307e-01 9.5858913585472783e-01  -5.0128722274747495e-01 2.7386095161163158e+00 3.7204773822253573e-01  1.1326775654507428e+00 2.4600412980187230e+00 2.0008230398867219e-01  -1.5104110814693833e-01 6.2472024568914619e-01 9.7517910723084233e-01  -1.1075057180536398e+00 2.3582550986756732e+00 2.4942862528628579e-01  5.6277908503060781e-01 1.7060580518341846e+00 8.1453639042384107e-01  1.1022119608796339e+00 2.0753075791207003e+00 -2.1898793723081922e-05  4.8374946820496106e-01 2.6931902664212179e+00 3.8383539901786862e-01  -8.4477519970992010e-01 -4.1289089785976528e-08 5.6446263134329766e-01  -5.4938391281339827e-01 2.3029126840320679e+00 6.2166660090206471e-01  1.2272840085219888e-01 2.3565023031561734e+00 3.5023564275996000e-01  -8.7708902560040103e-01 3.0274086468129524e+00 4.0119385632214222e-01  -5.3620224700396901e-01 2.0661556253039524e+00 7.2196451645920079e-01  -1.0111820107719520e+00 8.9948845501001884e-01 2.0253712115907593e-01  -9.1461912981055893e-01 1.2440726183530164e+00 5.1489217334784709e-01  -1.6511105502625731e-01 2.0084492761018380e+00 6.1166592297634115e-01  -9.6348437666827058e-01 2.7551721628190506e+00 4.5071301677275621e-01  -1.6139475318345703e-01 1.7479828321487521e+00 8.1036009456438174e-01  -2.9444353476949231e-01 2.6405291150998456e+00 2.6169180250527918e-01  5.0396510430874586e-01 2.3324018015328769e+00 5.8942382851683794e-01  -6.8527304237474806e-01 1.4294364409268547e+00 7.6502482473904843e-01  8.1303273562903844e-01 6.7091506066843754e-01 6.3301314550229415e-01  -8.5208681706226796e-01 2.3577442560705453e-01 5.6060861226051995e-01  9.9593145697701446e-01 7.3487042060269903e-01 2.5388859139678488e-01  5.4519003635269758e-01 6.1040748150983581e-01 8.5756225546805387e-01  5.7215488612077681e-01 1.3373047178205890e+00 8.2938739133051975e-01  -5.1336511725777689e-01 2.0403631115023832e-01 8.7653809287936280e-01  -2.5824951175558419e-01 2.3570436216579340e+00 4.1623057323820861e-01  -1.0227036027412193e+00 5.6615936473993744e-01 -1.5248205970212767e-05  -2.4778969867919168e-01 1.4139284933582086e+00 9.1386341084315315e-01  2.5542470055065269e-01 5.9376260418292393e-01 9.6097637126368540e-01  1.0187315446195249e+00 1.4916473935516059e+00 2.8886881311333068e-01  1.0456268032814926e+00 1.3210914583719535e+00 -1.4899266886106765e-05  -9.3357024169352465e-01 2.2306404174317245e+00 5.4447786579781476e-01  8.9019536071806038e-01 1.3900773793441066e+00 5.6317217094010019e-01  -9.9647439208773358e-01 -6.6910354417906914e-07 1.9820661218222319e-01  3.9978423870394625e-01 1.0270723114539060e+00 9.0473462377262814e-01  1.7053695335701002e-01 1.4136946736905942e+00 9.2149660531958133e-01  -1.0609302411437924e+00 1.9223328964923752e+00 2.4296754764144396e-01  2.0886214942117393e-01 1.9763699675424922e+00 6.5340348976155960e-01  1.0227115771876567e+00 5.6615381682532684e-01 -2.7170258452601056e-05  1.0760439788420388e+00 2.0635877441155070e+00 2.3849734894326369e-01  -8.4234512563880393e-01 1.0294385634266989e+00 6.1140472889332897e-01  -1.0153750423833905e+00 1.1408527074338644e+00 2.2709163006710786e-01  -1.0189913131950914e+00 1.8875171740559468e-01 -3.3269833311502223e-05  9.3782839443687860e-01 1.0927119125638614e+00 4.5839829036813001e-01  4.0911021378704748e-01 2.1185320237311384e-01 9.2716984434258254e-01  -1.1020671848653876e+00 2.0753343946390936e+00 -3.1702273694822715e-05  8.5105678322367051e-01 4.7285955503615656e-01 5.7191750504638994e-01  1.0033456928880717e+00 4.5634771694005116e-01 1.9618122572481492e-01  9.2479488966857515e-01 7.2476951524059319e-01 4.5636102842931719e-01  3.7370169245317619e-01 1.2931800341936102e+00 8.9862259809720291e-01  9.0653533629033423e-01 1.7946221184811002e+00 5.6623141332553417e-01  -1.7445930311654880e-03 1.0505126435091101e+00 9.5374489477459590e-01  1.0207040846337696e+00 1.1753617723564644e+00 2.0694476127615394e-01  -1.0049836534696432e+00 4.7194525998349207e-01 1.8823749749612187e-01  5.9188414559745571e-02 6.9427712523676255e-01 9.7753902244432922e-01  -9.4920159776474466e-01 4.9582052707528312e-01 3.8557912768215929e-01  -5.9676125638830013e-01 1.0843802626677717e+00 8.2290378014660692e-01  -9.4893630630997550e-01 2.0241299124501539e+00 5.2441070420955394e-01  -1.2095728743381846e+00 2.8270053642474555e+00 -7.7185587477478408e-06  7.6483226466457521e-01 1.0104182542048452e+00 6.9847241983138442e-01  6.8157329787280707e-01 2.8086635436954612e+00 4.4135165347188593e-01  -5.2810166504739076e-01 1.5265462869167152e+00 8.4159983276823458e-01  7.4670324801612287e-01 2.0664670602190980e+00 6.8912194418481831e-01  7.3916133060490286e-01 1.6680230753323975e+00 7.2619929244584980e-01  -1.9088879678679394e-01 2.8016633709450876e+00 7.6677390725759242e-02  -5.5205141919370650e-03 2.6065248110644093e+00 1.5463438323762624e-01  -1.0995815856712274e+00 2.1707144565041983e+00 1.7792314675134632e-01  9.9647558466299013e-01 -7.6580088340187443e-07 1.9820959481873482e-01  8.7710616041703071e-01 3.0273868734929801e+00 4.0104843826678277e-01  1.9820835677830301e-01 1.6123458326560489e-06 9.9649150236978068e-01  -1.9821667782728097e-01 6.2237923151352125e-07 9.9648250850240128e-01  5.6445637401505000e-01 1.3790901667832376e-07 8.4477737366725647e-01  1.9086547085348940e-01 2.8015628718245544e+00 7.6442282790968374e-02  8.4477835483483754e-01 -7.8103857638402068e-08 5.6446215661246557e-01  1.1948160029242072e+00 3.0211564496272061e+00 1.9341325000621123e-01  -5.1451947957419464e-01 2.9339394118493183e+00 2.7516147196679946e-01  -5.6446291134542459e-01 -2.1616296815435983e-08 8.4476972168742481e-01  -6.9451462914410053e-02 2.3051589996045663e+00 3.7222351911807833e-01  1.0566074340208436e+00 2.8237151956815167e+00 3.7650563993114083e-01  5.2892221171142850e-01 2.5409611196855129e+00 4.9568592253675731e-01  7.1802800672087763e-01 2.4469232546712076e+00 5.9222477287843067e-01  8.9540844026605371e-01 2.6399918996197984e+00 5.0553669069564200e-01  3.7100526745372214e-01 1.6928005223429321e+00 8.5354957025205647e-01  -7.9993593227301674e-01 2.8568752013174872e+00 4.5109888795481035e-01  -3.3101165646558811e-01 1.8897772455297235e-01 9.5652929779463813e-01  -1.1470888236837513e+00 2.5534498697219150e+00 1.8945885221611428e-01  -9.3367755716754230e-01 1.6405952681508453e+00 5.1364826119157525e-01  -1.0384246661348400e+00 1.5328380356047573e+00 2.1126385823634630e-01  -1.0682987798376931e+00 1.6984710844600734e+00 -3.5055594226889370e-05  -8.0840882363079736e-01 1.6471554507332484e+00 6.6925135336996322e-01  -5.6818378466993047e-01 3.9096821386132447e-01 8.4436937939516599e-01  1.2098090909649006e+00 2.8269547784714684e+00 -2.3020219214953193e-05  -1.0303948939145571e+00 9.4364496387237862e-01 -1.7364353027656667e-05  1.0189792337065751e+00 1.8875040925899161e-01 -2.9317870491251815e-05  1.0683757473003321e+00 1.6984548980657268e+00 -2.0322150159257495e-05  1.0304240790730286e+00 9.4363627510281434e-01 -4.9001535706550728e-05  -1.0455607432763341e+00 1.3211034594237436e+00 -3.1783913605450485e-05  1.1527002803289221e+00 2.4509755855439490e+00 -1.7247523185679200e-05  -1.1525240659596832e+00 2.4510066135725239e+00 -1.5012212571814827e-05  7.4078297942380045e-01 2.8670717816523433e-01 7.0192342460891166e-01  -9.9757085457876549e-01 1.8704245908666544e+00 4.2145016035074762e-01  -7.8532778730801089e-01 6.3412640728897862e-01 6.6480419784446221e-01  -3.2553846510199708e-01 1.2155403078042055e+00 9.1310273268898767e-01  -7.6311727318614431e-01 1.9064375344931730e+00 7.0079106979834782e-01  -4.7391063907675823e-01 1.7750368127375749e+00 8.2242692615618995e-01  -6.1646560112778737e-01 2.4705700457577926e+00 5.6775182415257308e-01  5.2992727287252817e-01 8.9820178687548857e-01 8.6081894112354285e-01  1.8388038211528593e-01 2.2168533028042186e+00 4.7119863427741882e-01  5.5133433169198343e-01 1.8897143632591220e+00 7.8196280834150433e-01  1.0650136331451399e+00 2.4455422876906123e+00 3.7551452518727074e-01  1.1066339316752913e+00 2.2401489272062269e+00 1.8740630538235675e-01  1.0679118543455934e+00 1.8843225535707659e+00 1.8934324286361606e-01  -2.2948529168397572e-01 1.0576856843942717e+00 9.3831060915393560e-01  7.1199472882945147e-01 1.2470199333476202e+00 7.4666000324345549e-01  5.7616174235303541e-01 1.5219628500169691e+00 8.2226095921378206e-01  -2.0496791770666317e-01 4.3923077670276350e-01 9.7765182441491594e-01  -9.8695728531462457e-01 1.5128144263489487e+00 3.9028786175839730e-01  -1.0366304358038867e+00 2.3056802773352625e+00 4.1134335880431588e-01  -1.0117166629846961e+00 6.4881270200665142e-01 1.6232861498140336e-01  4.2349423651124596e-02 2.0081410139065063e+00 5.8251466385095352e-01  5.7280121049933752e-01 4.3545420064031337e-01 8.4166185077015698e-01  2.3864013444662480e-01 4.1429417756008352e-01 9.7256449007157220e-01  1.1430562796250805e+00 2.6345084205249436e+00 2.3686557656366303e-01  8.9512836019244002e-01 2.2722682144908801e+00 5.7388041853830074e-01  -5.7193905429978409e-01 2.6179081405392695e+00 4.8075820203981628e-01  -5.9969845737534366e-01 1.9092134244104157e+00 7.6864673929868055e-01  1.0203407267430784e+00 2.0663450430619359e+00 4.0735415268578512e-01  -4.7704187506140182e-03 1.3561905955552847e+00 9.3299749117212327e-01  3.4980118172729330e-01 2.3078435780241020e+00 5.1000571157317198e-01  3.7390946639045392e-01 2.0254596393750028e+00 6.9681985999026719e-01  1.8641432152618841e-02 1.8097318634453399e-01 1.0082652718722573e+00  -8.9279628081989060e-01 2.6098196608721400e+00 5.1391441310306063e-01  1.7782481547289009e-01 1.8363251719553209e+00 7.4870048108293774e-01  3.3894088562947727e-01 2.6016069582325163e+00 3.2058858049670225e-01  -3.1525137833883338e-01 5.7190980438525130e-01 9.4843793564047085e-01  -4.8626075214318115e-01 5.6754633825548317e-01 8.8788809695943416e-01  6.1517106020706480e-02 2.4800546587557180e+00 2.4870678001624993e-01  -1.7894071504611164e-01 2.2113013845470406e+00 4.7240914085536700e-01  -9.0138579833611920e-01 6.3452782020071719e-01 4.9665009194711540e-01  -9.6700572940462659e-01 8.6091441339422503e-01 3.6537977481748607e-01  -3.9210854487250807e-01 2.3357044092118224e+00 5.2124049599676792e-01  -3.2531143915919386e-01 2.0458218281147467e+00 6.6075287965597562e-01  -1.0100577315678219e+00 2.8314115877958351e-01 1.4525191389230724e-01  7.8701939831562850e-01 1.3572942560164578e-01 6.4519057114699774e-01  -6.4260023562590207e-01 1.3891222166956341e-01 7.8832236222903884e-01  -1.0607804275495942e+00 1.7606817034493121e+00 1.6934730616094673e-01  1.0336761486374162e+00 1.3505252125503238e+00 1.7917803316107200e-01  -4.9660722208490982e-01 8.7418062262223650e-01 8.7648616659059619e-01  -5.9248752958029716e-01 7.3397793500125685e-01 8.2952375620179075e-01  7.5181686855563135e-03 1.7379583819535449e+00 8.0213125154644427e-01  -9.7420253728934869e-01 1.3925253520635755e-01 2.9533470723727206e-01  -6.4559043407171324e-01 2.7981453809608148e+00 4.3110155483083817e-01  1.0196586751358343e+00 8.4944087243557398e-01 1.3661610328369483e-01  -1.7664335829544631e-01 1.8801265319780733e+00 7.1392973423486417e-01  6.8201008909870164e-01 6.3446828709977543e-01 7.6526685109236781e-01  -9.1171288532024053e-01 3.5518593342717591e-01 4.6257390293437467e-01  2.2587622266895502e-01 2.4807063832712313e+00 3.1510080046884198e-01  8.4740625847160567e-01 1.5790719324651741e+00 6.2702618873745375e-01  4.9940545213966148e-01 1.1941476529181443e+00 8.6459011985029866e-01  -3.2087500513607442e-01 2.5069176568328331e+00 3.6407093629218196e-01  8.5775377868847924e-01 1.9633501654631085e+00 6.2547284289939831e-01  9.8289324951700607e-01 1.7385907381169701e+00 4.3259916516117192e-01  -7.4284648767333239e-01 4.5606017557095657e-01 7.0484600701571620e-01  2.1236968462515268e-01 7.5138765427781040e-01 9.5981692098162108e-01  -6.4661525886955373e-01 2.1841536112761304e+00 6.8309418708027903e-01  -6.1073851040855032e-01 1.2456312985379401e+00 8.1216082853170601e-01  -7.2786379056006389e-01 1.0331404349677313e+00 7.3271184632673414e-01  -7.9234078815251185e-01 1.3436913116972260e+00 6.7819085391026157e-01  9.4443443388451853e-01 9.3631590557100619e-01 4.2995562733583431e-01  -9.7447220030032233e-01 1.1784562119742985e+00 3.7966133074577318e-01  8.9759044417586165e-01 1.2500605899124587e-01 4.7945083518145420e-01  9.1673378566435992e-01 3.8363994363779480e-01 4.5373974847900744e-01  -6.6368926554791396e-01 1.5874404434081681e+00 7.7626633186945471e-01  9.6584943359229536e-01 1.4425865924279659e+00 4.3204588089927465e-01  -9.4851657894559505e-01 2.3911740317973