<?xml version="1.0"?>
<VTKFile type="UnstructuredGrid"  version="0.1"  >
<UnstructuredGrid>
<Piece  NumberOfPoints="758" NumberOfCells="1386">
<Points>
<DataArray  type="Float64"  NumberOfComponents="3"  format="ascii">-1.570796326794897 3.048 0  -1.570796326794897 0 0  1.570796326794897 0 0  1.570796326794897 3.048 0  0 0 0  0 3.048 0  -1.570796326794897 1.524 0  1.570796326794897 1.524 0  -0.04609926118424437 1.524 0  0.7853981633974483 0 0  0.7623485328053261 2.262242601661362 0  -0.7853981633974483 0 0  -0.7853981633974483 3.048 0  0.392699081698724 0.7745759241961347 0  -1.570796326794897 0.762 0  -0.8084477939895706 2.0955 0  -0.68277245543452 0.8915343570675713 0  0.7853981633974483 3.048 0  0.778743707341909 1.468410948960538 0  2.780093748954961e-16 2.285302774973185 0  -1.570796326794897 2.286 0  1.570796326794897 0.762 0  1.570796326794897 2.286 0  -0.9375370967763674 1.47348297960658 0  0.9831575747762593 0.9003629142671278 0  -0.3926990816987241 0.4064697549061488 0  1.177419588818055 1.905 0  0.3692901340097942 1.880893989147954 0  -0.4920225169641509 2.564371687128368 0  0.3926990816987241 3.048 0  1.178097245096172 0 0  1.155705348811136 2.643920532523289 0  -1.178097245096172 3.048 0  -1.178097245096172 0 0  -0.1391296372266528 0.8873724190154949 0  -1.10527745318919 2.528282743051346 0  -0.9817477042468103 0.4742759268549471 0  -0.3416666987802651 1.923944646262223 0  -1.570796326794897 1.905 0  -1.156555306160469 1.030861936336814 0  0.7648449098493205 0.4764142032227 0  0.3926990816987241 0 0  -0.4820376416180818 1.326151321396512 0  0.06374421723344185 0.4545169930886408 0  0.1972735722393064 1.163324878565267 0  0.3900417218314142 2.566922767651637 0  1.570796326794897 0.381 0  1.188877612935585 1.295195418509834 0  1.179914028402171 0.5308585702661928 0  0.7660075594126428 1.865233039449035 0  0.6330293131838399 1.095171663968746 0  -1.201232463242587 2.144287146570887 0  -0.3926990816987241 0 0  -0.3926990816987241 3.048 0  1.178097245096172 3.048 0  0.7684409382397209 2.649499271873753 0  -1.236954997304436 1.7145 0  -0.1088573452899617 2.666651387486592 0  -1.570796326794897 1.143 0  -1.570796326794897 0.381 0  1.570796326794897 1.143 0  1.570796326794897 1.905 0  1.570796326794897 2.667 0  -1.570796326794897 2.667 0  -0.6730839067294777 1.743003792473746 0  1.199831389396789 2.275437921225198 0  0.3936837537618041 1.495643752599615 0  0.01539369169800942 1.928544709491661 0  0.4156551272669651 0.4219033286010089 0  0.3401546043708642 2.225103550856524 0  -0.3379897306391274 2.262671266279809 0  -1.23624174049596 0.7000907110925838 0  -1.265224057170889 1.360131453617764 0  -0.1224339018241312 1.210043725539656 0  1.289286200625578 0.9918698881707442 0  -0.7751142346211329 1.197848666814478 0  1.003546186550495 0.2660297686099683 0  0.1963495408493621 2.808538634159524 0  -0.8079023568959116 2.703551618159924 0  -0.3480226984353056 1.610059855391589 0  1.075147893506229 1.598068412087719 0  -0.8290627893979112 2.399544545867518 0  0.6965048925255637 0.7972100472372819 0  -1.257765094876752 0.3107645483825858 0  -0.6724835324263325 0.5684215760013651 0  -0.3995059642389676 0.7173610149075536 0  0.9136951972244611 1.187564504803626 0  -0.964259350608907 0.8095514380783081 0  -0.7565990314517038 0.2897049735129544 0  -0.9603859887840651 1.834914433810327 0  -0.1457055965762301 0.2521630699436873 0  0.1963495408493621 0.2041911848053476 0  0.6241974196550791 0.231695999252114 0  -0.4098815011312292 1.029160072548571 0  0.9592800715482012 2.452820690856482 0  0.9648684169153161 2.840751931000357 0  0.5890486225480862 3.048 0  0.164631037784102 1.698913854044779 0  0.5664480837073581 2.070920238540226 0  1.374107957806476 1.7145 0  0.9861079629544779 2.102471438422718 0  -1.374446785945534 3.048 0  -1.288827800789186 2.762781313597598 0  1.353232957571468 2.835634774483438 0  1.302158670506274 0.2650078124691045 0  0.1394669809465775 0.8907702620243092 0  -0.5631487221059602 2.830992231257464 0  1.372837635547072 2.483038902756259 0  -0.1493395228831287 0.618617259260858 0  -1.32327048447753 2.378769394323546 0  0.56080204725298 1.699622905297025 0  1.570796326794897 2.0955 0  0.5403456747786348 2.786446773498672 0  -0.9817477042468103 0 0  -0.5847039960246873 2.326882432521036 0  0.1225428891326576 2.526494255738436 0  -0.9817477042468103 3.048 0  -0.5522901559753841 2.071668786267058 0  -1.370864794258017 0.9075071715671403 0  -1.043891045637083 1.250611220450313 0  -0.1652643923634778 2.09141301924679 0  -1.044446740946883 2.764982067459552 0  -0.1610370079820225 1.763280243096074 0  -0.3136912237752232 2.810498886211121 0  0.5400974078002052 2.370472734822523 0  -0.7009161718414544 1.427243880175582 0  0.902907438200502 0.6735032943420574 0  -0.9879196222361604 0.2371379634274736 0  1.319268546233604 0.7412771512308228 0  0.5578373583610097 0.608241627784878 0  0.5756483102040615 1.332636919938113 0  -0.5281701577409 0.2032348774530744 0  -0.266729509930448 2.489223923247521 0  -1.570796326794897 0.5715 0  -0.2430656531629531 1.405631921096758 0  0.253622337931223 0.5884397663452474 0  1.284044721043478 1.50372037617638 0  1.570796326794897 1.3335 0  -0.9904333867980613 2.235882060371517 0  0.9871146764618406 1.395690276854986 0  -1.374446785945534 0 0  0.3981951765262902 1.020833864419675 0  0.1670583512016766 1.405384478716078 0  -1.330327693484763 1.938638984813805 0  0.2106653067452682 2.040805097078886 0  1.570796326794897 0.5715 0  1.334822181490566 2.081373939821734 0  -0.9303227889097604 1.033236710715967 0  -1.34639228476592 1.150776798768373 0  -1.570796326794897 0.1905 0  1.106697207481837 1.099709897393925 0  0.4137866939027022 0.2104288000383385 0  -1.570796326794897 2.0955 0  0.9761377489246634 0.4754251272674608 0  1.377108465632662 0.4605024587280874 0  1.108114944719677 0.7297638044096917 0  0.3695908229138113 1.285681859811955 0  0.9799112840676307 1.800306505551499 0  -0.001696842075803034 1.042028929293442 0  1.366537356420357 1.185723700290463 0  -1.385029840108318 0.47625 0  0.05842649915411911 0.6874537157920781 0  -1.183268988745763 0.4997334438341218 0  -0.6073502281622543 1.081347079085406 0  -1.026941765261019 2.031536576622642 0  -1.570796326794897 2.8575 0  0.8159726599830506 1.011928543199529 0  0.7652782693277244 2.849245002237192 0  -0.5252326280373281 1.520125074885265 0  0.7648326174724897 2.063743853392348 0  0.757099741434616 1.666331708950521 0  -0.1963495408493621 3.048 0  -0.005410422648647092 2.843333256403111 0  -1.395368347654653 2.19075 0  1.374446785945534 0 0  0.9817477042468103 3.048 0  0.1963495408493621 0 0  -0.1963495408493621 0 0  0.5890486225480862 0 0  0.1963495408493621 3.048 0  0.9817477042468103 0 0  1.374446785945534 3.048 0  -0.5890486225480862 3.048 0  -0.5890486225480862 0 0  -0.06865319188571758 2.471928549109083 0  1.159049337209348 2.838090892449816 0  0.5817075150535711 2.596909954318943 0  0.7656515661107315 2.455866896253367 0  0.9620790410056582 2.647119292933887 0  0.3676829480103987 1.68739481709134 0  -0.8886101495223063 2.878912500124773 0  -0.3317793704126089 0.1873756770788371 0  -1.383208664444332 2.577695923010364 0  -1.043597917648523 1.648216005744782 0  -1.362178343413552 1.546177620526679 0  -1.570796326794897 1.7145 0  -0.8462722504471433 1.648434957877788 0  -0.588076822054871 0.3899352838051667 0  1.570796326794897 2.8575 0  -1.570796326794897 0.9525 0  1.570796326794897 0.1905 0  1.570796326794897 1.7145 0  1.570796326794897 0.9525 0  -1.570796326794897 1.3335 0  1.570796326794897 2.4765 0  -1.570796326794897 2.4765 0  0.8103777117362174 0.287468585434799 0  -1.145334531235929 1.881885620422454 0  -0.8620560674467429 0.6361265362229395 0  -0.321688879263093 1.207848147265888 0  -0.7798551871678058 1.904240998338365 0  -0.4724954359209014 1.769587110195458 0  -0.667402576232105 2.495985359319255 0  0.5365063314111709 0.8945566719544227 0  0.1855702280441107 2.342745654422604 0  0.55510120733165 1.88540118775351 0  1.188295809121239 2.460939894898248 0  1.38587897409014 2.260870763688798 0  1.383978812419919 1.901097375082534 0  -0.2265735189171196 1.049795314962436 0  0.7387890113368257 1.246392780742437 0  0.5763234466275948 1.516457524623135 0  -0.203279258075353 0.4348372558382012 0  -1.179202350299698 1.523245956950107 0  -1.151844216720993 2.318990544544152 0  -1.410806081599612 0.6547540757597369 0  0.04190096621848406 2.108399609871347 0  0.5925649981629265 0.4343292987553075 0  0.2371113691258682 0.4102816185532077 0  1.334103818253725 2.657728219912091 0  0.9405077369493808 2.275181409651143 0  -0.633962040105568 2.669303984283053 0  -0.6045614816381242 1.904349918307267 0  1.159697673803787 2.079238591118184 0  -0.004643801590645341 1.347662554528907 0  0.3691400131247499 2.395423267764724 0  0.3855005143298051 2.055603978165229 0  0.01839821075864462 0.1788084577298442 0  -0.9568120219060965 2.61629404172056 0  0.1783135820912846 1.871116340262054 0  0.3649950158263953 2.745288921627024 0  -0.3142054567155264 0.5671999812317062 0  -0.4933549623779417 0.564740705097546 0  0.06092775470575962 2.685867440722903 0  -0.1801827362748675 2.337517890002858 0  -1.063355415037434 0.6386189748554 0  -1.205242865599393 0.8676070232612285 0  -0.4176020549597784 2.412196127179313 0  -0.3347051678178828 2.093252344225509 0  -1.427772711006951 0.2857500000000001 0  0.8835729338221293 0.1362887052191026 0  -0.6831011505337878 0.1389086130988801 0  -1.403875662049666 1.77648180985222 0  1.394165436236593 1.362588987767805 0  -0.5007942298153729 0.8700626692351643 0  -0.6093220848169366 0.7321530406295067 0  0.007534593095922887 1.760126887057542 0  -1.276272015520854 0.140425968067263 0  -0.7270478511000733 2.847016806985676 0  1.436331331726002 0.85725 0  -0.1770320080670663 1.927167796173981 0  0.7200726153501196 0.6345534912379586 0  -1.099983122078282 0.3577316115390257 0  0.2324759135153202 2.648405702327079 0  0.9054371869972004 1.582409569434113 0  0.5000672234640285 1.188708149930449 0  -0.340793734207542
[...]
<PointData  Vectors="phi"> 
<DataArray  type="Float64"  Name="phi"  NumberOfComponents="3" format="ascii">-1.2737289430101002e+00 3.0125132251636897e+00 1.1928579294116453e-04  -1.0160128207023447e+00 -8.7871910615205514e-09 -9.0543750166987472e-06  1.0160128483344670e+00 -2.7671832549304765e-08 -1.0866687375661660e-05  1.2738733017531274e+00 3.0124804765169348e+00 9.1403370039891380e-05  -5.8254277793327224e-06 1.5122512209384058e-07 1.0160219420508050e+00  -3.4713851578903641e-04 2.6527705035309754e+00 -2.0399427197792330e-01  -1.0574076252442328e+00 1.5090188682036718e+00 -1.7336703013622585e-05  1.0575310937392202e+00 1.5089922896750732e+00 -2.5095533446053307e-05  -4.6403769025260479e-02 1.4764583560872360e+00 7.6733864185063960e-01  7.1842705604461743e-01 -1.5012820581709362e-07 7.1841677643585000e-01  6.9047358696367001e-01 2.2411816853792756e+00 5.4580652405711616e-01  -7.1842439813744607e-01 -3.6455943426450694e-07 7.1841899971486001e-01  -6.4506542408074430e-01 2.9311066189218993e+00 1.7260180132980729e-01  3.9381903872643131e-01 7.7970549800097355e-01 9.1620925003732301e-01  -1.0243376483466031e+00 7.5474998993844833e-01 -2.1528718359929312e-05  -7.5558175621097934e-01 2.0910902330224737e+00 6.0425601799708872e-01  -6.6017027377879356e-01 8.9287211718652881e-01 7.8689784892480363e-01  6.4488978901086447e-01 2.9307617337000367e+00 1.7154387706619167e-01  7.5538979756497615e-01 1.4702923106161847e+00 7.1705124945462795e-01  -2.7498490372424684e-04 2.0613536977373816e+00 2.7938696586880007e-01  -1.1588637355208171e+00 2.2589440985214364e+00 -1.1827176447708304e-05  1.0243590526190682e+00 7.5474023330669393e-01 -3.0585182459895716e-05  1.1591287166865232e+00 2.2588976826761580e+00 -5.2067491740318625e-05  -8.7078069951547954e-01 1.4700737641703279e+00 6.0470785069729449e-01  8.7093889222506959e-01 8.9612554066800965e-01 5.6869177526213599e-01  -3.9099004849617219e-01 4.0940071366201797e-01 9.2997231067620600e-01  1.0284083151110357e+00 1.8919730390206841e+00 3.9161114990973073e-01  3.5096348371043540e-01 1.8153921143251674e+00 6.2162645734003974e-01  -4.3459663907253349e-01 2.4163291028332861e+00 2.8692522802857634e-01  3.4764261336192692e-01 2.7720316027538470e+00 -4.5382971675849731e-02  9.3865685581017044e-01 -4.4825199900860888e-07 3.8880526679173821e-01  1.0326857458750620e+00 2.6289630364080074e+00 3.5773596874781072e-01  -1.0159761336584350e+00 3.0219008450793163e+00 2.6311556970488997e-01  -9.3865661632421948e-01 -3.1280973702937320e-07 3.8881438666171086e-01  -1.4147293598969427e-01 8.9437959248634358e-01 9.5639046911280978e-01  -9.9690806007866006e-01 2.5163791152311901e+00 4.0340124437305858e-01  -8.5539384134984309e-01 4.7161726620223271e-01 5.6790974044672449e-01  -3.2577384834267897e-01 1.8418189832777461e+00 5.8595335561676720e-01  -1.0980945685772243e+00 1.8847893812370724e+00 -2.3784855136947908e-05  -9.5713631292999923e-01 1.0235117519948806e+00 4.1256426647546740e-01  7.1385874446446651e-01 4.7574276540832000e-01 7.3626632616453946e-01  3.8881367431150182e-01 8.8353850079265724e-07 9.3866770942466027e-01  -4.8577533016560998e-01 1.3327910331142834e+00 8.6061796810152913e-01  6.4547436394919402e-02 4.5936700481670739e-01 9.8853596639057362e-01  2.0145288096718819e-01 1.1700680325592592e+00 9.3225130515138388e-01  3.5455370343320725e-01 2.3789124347514496e+00 2.3183446570423022e-01  1.0205879453854421e+00 3.7740505754029158e-01 -1.9590816241678764e-05  9.8187620961908761e-01 1.2857321981187533e+00 3.8195291951769084e-01  9.4905698808883210e-01 5.2665004195377818e-01 3.8919245057154023e-01  7.3519702490664918e-01 1.8669627856779851e+00 6.7449855395378289e-01  6.2238597759906233e-01 1.0984325338110517e+00 8.1018005686459960e-01  -1.0596440487866290e+00 2.1292154946368815e+00 3.6521305824007488e-01  -3.8880195215986901e-01 -2.0759926069432735e-07 9.3865651799338068e-01  -3.4814549596341077e-01 2.7722940713084112e+00 -4.4745090257438599e-02  1.0157845570975441e+00 3.0217599062793319e+00 2.6259736761052888e-01  6.5822178636914830e-01 2.5848096586761096e+00 3.6952674992208501e-01  -1.0295364911711347e+00 1.7009765457966757e+00 3.3561252068904085e-01  -1.0935408524746418e-01 2.3735439049872551e+00 5.9264553645767007e-02  -1.0362157924310247e+00 1.1319952739686177e+00 -2.5039593780555993e-05  -1.0205986630902038e+00 3.7740953870951688e-01 -2.4503630792127457e-05  1.0362888434173092e+00 1.1319774666619116e+00 -1.1744681612989439e-05  1.0983353876644180e+00 1.8847383026910731e+00 -4.8370768768041840e-05  1.2219618311811284e+00 2.6344308047318679e+00 -4.1226856403357743e-05  -1.2214999513458720e+00 2.6345167032947479e+00 -1.9035438747996010e-06  -6.5411178313491758e-01 1.7458151431451643e+00 7.2891741044617653e-01  1.0674914888463047e+00 2.2601882363453401e+00 3.6168490813786197e-01  3.9100950680238616e-01 1.4946641815607358e+00 8.3046552657207051e-01  1.5390915473398851e-02 1.7801859612479045e+00 4.9986345150527706e-01  4.1294643780615553e-01 4.2475128787887029e-01 9.2150354085137498e-01  3.1928335575686334e-01 2.0837102130120480e+00 4.0750963167934168e-01  -3.1757311980764846e-01 2.1131239413476153e+00 3.8442830948847595e-01  -9.7236188645515387e-01 6.9431123788502414e-01 3.3554734556885979e-01  -1.0086368880289822e+00 1.3490106759906333e+00 3.0782108847617101e-01  -1.2503879044444971e-01 1.2155285464265373e+00 9.2948739016197224e-01  9.9672090740590003e-01 9.8341199667682633e-01 2.8396278702436129e-01  -7.4319785023867735e-01 1.1983451416342179e+00 7.2557115336624001e-01  8.6190113614796149e-01 2.6438614008467137e-01 5.4779837604132608e-01  1.8945767720350493e-01 2.5081728171942363e+00 1.3510252394296071e-03  -6.8976350009632115e-01 2.6429870229055941e+00 3.5734254169944424e-01  -3.4027769284415527e-01 1.5887019701105130e+00 7.6949508165732483e-01  9.5644387754481763e-01 1.5899509858547256e+00 4.8755735548756385e-01  -7.4164980202486674e-01 2.3771422593196863e+00 4.9747713102729629e-01  6.6920197140586857e-01 7.9799054805149239e-01 7.7989722069566769e-01  -9.7164577350990577e-01 3.0810021349570915e-01 3.1395613382117571e-01  -6.4407791612034471e-01 5.6896812690874676e-01 7.9615378670130865e-01  -3.9998966383606654e-01 7.2211340536934221e-01 9.1667488019191423e-01  8.4116674613809894e-01 1.1844705693788444e+00 6.2528042407002948e-01  -8.5680620915904504e-01 8.0583562654524254e-01 5.8446333064248590e-01  -7.0276450628580012e-01 2.8923099236300825e-01 7.4086270888653127e-01  -9.0213998302324350e-01 1.8318881995201794e+00 5.7593922814623177e-01  -1.4727077738097824e-01 2.5499180296525842e-01 9.9363783038151043e-01  1.9802101612402201e-01 2.0641541652731760e-01 9.8847141468243938e-01  5.9689369514828916e-01 2.3204369687090085e-01 8.2493559879802547e-01  -4.1319229523126894e-01 1.0353261950879922e+00 9.0093285476315010e-01  8.6582310974074017e-01 2.4408387962160041e+00 4.7153578376302013e-01  8.2550257127433380e-01 2.8009754279469270e+00 3.3264142381668138e-01  4.9349883299538161e-01 2.8534171818369845e+00 6.5684706442569671e-02  1.6388324937963028e-01 1.6199000364399530e+00 6.6679182878565080e-01  5.1978010869504354e-01 2.0297795524486046e+00 5.8980743495453369e-01  1.0601570372302276e+00 1.6983702335032951e+00 1.9949898634382185e-01  9.1945758143560385e-01 2.0986154664077605e+00 5.3346903989833605e-01  -1.1947919824941398e+00 3.0206910803457148e+00 1.7771923471930542e-01  -1.1336455528525333e+00 2.7409517914348185e+00 2.5980163273804996e-01  1.1768470083343392e+00 2.8098366278113667e+00 2.0523184374083811e-01  9.8373653964596652e-01 2.6268017823617790e-01 2.7049737609564789e-01  1.4176626492439132e-01 8.9778704742920679e-01 9.5611467763035962e-01  -4.8021637503404158e-01 2.6645786709379533e+00 1.7497589420600937e-01  1.1605892628425658e+00 2.4574507129447611e+00 1.9790653300346556e-01  -1.5120591073857043e-01 6.2443895379142667e-01 9.7173531283843551e-01  -1.1316834872219070e+00 2.3562401242974551e+00 2.4678218071331748e-01  5.4493310426946984e-01 1.6979199008730017e+00 7.5485947202653991e-01  1.1274357882915360e+00 2.0718425584334841e+00 -2.0544972931350941e-05  4.6392958633614195e-01 2.6185527091223291e+00 1.8706538231731373e-01  -8.4477551791216865e-01 -1.3480669852738767e-08 5.6446285393717399e-01  -5.1965802823424967e-01 2.2527979751799023e+00 4.6383824327087914e-01  1.2214919362999341e-01 2.2641438536899039e+00 1.4705207678355456e-01  -8.1924089368164121e-01 2.9915712519526467e+00 2.5031691739996709e-01  -5.0699006540804903e-01 2.0266643848493509e+00 5.8512951406187985e-01  -1.0107427448600290e+00 8.9928827682497547e-01 2.0264986746331229e-01  -9.1846299260404540e-01 1.2442916866404004e+00 5.1600155023585015e-01  -1.6422181092441984e-01 1.9264526914282663e+00 4.2221206293852881e-01  -9.1435676668858268e-01 2.7425920195795253e+00 3.6387445400128660e-01  -1.6068820684448795e-01 1.6684901517648261e+00 6.2482790546077405e-01  -2.8922805444212391e-01 2.5493518438361145e+00 5.2996973216350558e-02  4.7944690002406981e-01 2.2741501399819999e+00 4.1966066545123976e-01  -6.8933134975944055e-01 1.4310570328678867e+00 7.6372040463157631e-01  8.1506984758579704e-01 6.7095138658977682e-01 6.3417594779424835e-01  -8.5256696241264696e-01 2.3572342492765228e-01 5.6091021981479672e-01  9.9565827194786038e-01 7.3474155897811833e-01 2.5406095668924605e-01  5.4657543586658730e-01 6.1050094774276986e-01 8.5780037413570387e-01  5.7522477152290552e-01 1.3383972519498299e+00 8.2781217278751085e-01  -5.1386157731320425e-01 2.0403438913767921e-01 8.7677457890126198e-01  -2.5511983000330418e-01 2.2716954167778383e+00 2.1856735617234321e-01  -1.0216146989764348e+00 5.6608193574105903e-01 -1.5386806210316292e-05  -2.4363974756204745e-01 1.4014936315675661e+00 8.6114927342776371e-01  2.5575343347681234e-01 5.9361538563841354e-01 9.5843488856735004e-01  1.0233779492493245e+00 1.4910927166042944e+00 2.8931095561554065e-01  1.0453875582340835e+00 1.3205385369350831e+00 -1.4879484945725138e-05  -9.1613440846416805e-01 2.2307655451151684e+00 5.1128477276450568e-01  8.9626381144852918e-01 1.3906341636701622e+00 5.6472879885896876e-01  -9.9647417455693155e-01 -6.9483385462961747e-07 1.9820652430231428e-01  4.0163028524056632e-01 1.0270785302596068e+00 9.0445285241612539e-01  1.6736462698572085e-01 1.3952712218784789e+00 8.5462372406229936e-01  -1.0789436440213045e+00 1.9204611169670565e+00 2.4337424785376369e-01  2.0644509337886452e-01 1.8972576281280191e+00 4.6693559472909790e-01  1.0216229167114965e+00 5.6607351846859055e-01 -2.7381944141570613e-05  1.0990814403668874e+00 2.0612395125362761e+00 2.3850736121847990e-01  -8.4518937132397387e-01 1.0297498694387950e+00 6.1254657308714688e-01  -1.0157589106581597e+00 1.1405371103080244e+00 2.2724168010076118e-01  -1.0188157233377622e+00 1.8874716947637152e-01 -3.3226966541153438e-05  9.4021609788721061e-01 1.0927221915421106e+00 4.5920180267394262e-01  4.0946971132105525e-01 2.1186892688368802e-01 9.2710142149407948e-01  -1.1270274561640594e+00 2.0719175998208268e+00 -3.1694579095825639e-05  8.5230398426103182e-01 4.7280217682394726e-01 5.7268560889874653e-01  1.0028768382658781e+00 4.5629056065739237e-01 1.9623968696815941e-01  9.2607071774304572e-01 7.2470794330334065e-01 4.5706880860429022e-01  3.7470643238380452e-01 1.2923382594765040e+00 8.9160473459642142e-01  9.1467947591622245e-01 1.7962419515745804e+00 5.6323569258984674e-01  -1.7669199969266450e-03 1.0491270476898766e+00 9.5316965712174551e-01  1.0210527318386855e+00 1.1750037067079213e+00 2.0705920150912888e-01  -1.0044635277631568e+00 4.7188740660847844e-01 1.8829180941872856e-01  5.9259031494981643e-02 6.9383834830850788e-01 9.7358368881960999e-01  -9.4959830000651846e-01 4.9574715704667094e-01 3.8591896765848960e-01  -5.9940635277265530e-01 1.0850148374438846e+00 8.2340812482356929e-01  -9.5200107283925461e-01 2.0258608213375084e+00 5.1396878354467390e-01  -1.2486299870804709e+00 2.8234191043374546e+00 3.8663660745039045e-05  7.6758119611325837e-01 1.0108945646704761e+00 6.9949608743419411e-01  6.4082467705159096e-01 2.7547760966559744e+00 2.6587086938266707e-01  -5.2217582002449681e-01 1.5249403407398356e+00 8.1461760701744446e-01  7.1501441930604814e-01 2.0577566809346770e+00 6.1933849529381080e-01  7.3758226693186102e-01 1.6698971037223445e+00 7.1329202215599885e-01  -1.8917232816634139e-01 2.6982147367163378e+00 -1.4405947535626604e-01  -5.8392464353680855e-03 2.5036511893152822e+00 -6.1405660311938566e-02  -1.1270235964027868e+00 2.1675677056631795e+00 1.7781491032993785e-01  9.9647558538212710e-01 -7.4694254576591415e-07 1.9820950893534886e-01  8.1898551310269252e-01 2.9913399184745275e+00 2.4934468571296120e-01  1.9820800429550753e-01 1.6818107831548096e-06 9.9649249052998312e-01  -1.9821655821473244e-01 5.5970423993763153e-07 9.9648287537807501e-01  5.6445641807732139e-01 1.3735034510585077e-07 8.4477756353471245e-01  1.8849052183889323e-01 2.6980422179197356e+00 -1.4450353713600445e-01  8.4477859100463770e-01 -1.1667310130296390e-07 5.6446232823448150e-01  1.1948401808014304e+00 3.0207649254439142e+00 1.7755781467140530e-01  -4.9381457893688596e-01 2.8536835448061058e+00 6.6482764397328475e-02  -5.6446356841668555e-01 -8.9497567958522709e-08 8.4477056199072786e-01  -6.9654534755160424e-02 2.2130577915724552e+00 1.7028595909837246e-01  1.0189285326278434e+00 2.8184628458004339e+00 3.1785241130151226e-01  5.0332558907441849e-01 2.4775062721377532e+00 3.1467407737633674e-01  6.7327626479918345e-01 2.4151266243376823e+00 4.6186796635459704e-01  8.4549839356205192e-01 2.6236380939547059e+00 4.0803231298407183e-01  3.5587846946329971e-01 1.6568601264283576e+00 7.3135318436174335e-01  -7.4860759185992798e-01 2.8176898608132648e+00 2.9867884111227078e-01  -3.3122825473722389e-01 1.8899822660435070e-01 9.5622583773598380e-01  -1.1741716211776823e+00 2.5510535411459458e+00 1.8671942716365023e-01  -9.4403915702101027e-01 1.6411469610287468e+00 5.1497719751761983e-01  -1.0424075528140966e+00 1.5321027406084435e+00 2.1144601945251409e-01  -1.0745480488757042e+00 1.6971766062591096e+00 -3.4796045943417836e-05  -8.1309084379051355e-01 1.6491781203221185e+00 6.6533864814261712e-01  -5.6927427508455175e-01 3.9097972459740499e-01 8.4493089757537276e-01  1.2492306200327223e+00 2.8232994600488688e+00 -1.7006837108732013e-05  -1.0292482894259434e+00 9.4339036220877048e-01 -1.7207676301225078e-05  1.0188013399856652e+00 1.8874537905033381e-01 -2.9264533827908086e-05  1.0747296221086988e+00 1.6971400501490856e+00 -1.9134912868879172e-05  1.0292895597335443e+00 9.4337667798640057e-01 -4.8653295803485279e-05  -1.0452957352336461e+00 1.3205586048885483e+00 -3.1848235010745359e-05  1.1913594862549186e+00 2.4463288538316950e+00 -2.0370685061186428e-05  -1.1909478707826224e+00 2.4464027824600261e+00 -3.1821838310921196e-06  7.4166769626157547e-01 2.8666155052965370e-01 7.0250988138711568e-01  -1.0123966947450156e+00 1.8703203204354091e+00 4.2153274049778189e-01  -7.8732571563883325e-01 6.3416155453272671e-01 6.6597829070256287e-01  -3.2730575568970721e-01 1.2147634599752988e+00 9.1065025498488372e-01  -7.4575060441172758e-01 1.9053014023599930e+00 6.6181099040041036e-01  -4.5208996963101283e-01 1.7483416645949479e+00 7.1507656601978653e-01  -5.8041738362791728e-01 2.4226676642808678e+00 4.0950971590150742e-01  5.3159558020000997e-01 8.9847437288380405e-01 8.6048072922693120e-01  1.8243191411343804e-01 2.1309922797000218e+00 2.7554387904571104e-01  5.2348574207718412e-01 1.8656645854631628e+00 6.7693299038088328e-01  1.0649015122126708e+00 2.4459894919031666e+00 3.5910298601239055e-01  1.1354639393932242e+00 2.2369785880001936e+00 1.8696444824591446e-01  1.0840970165347048e+00 1.8823344142079736e+00 1.8965122407244245e-01  -2.3085018240379226e-01 1.0568879860961033e+00 9.3811816603336207e-01  7.1603117959187434e-01 1.2480684457080433e+00 7.4776624085112919e-01  5.7276512208787933e-01 1.5221297300755858e+00 8.0401487539041827e-01  -2.0513724095819832e-01 4.3915631762372254e-01 9.7546495935299182e-01  -9.9378732445622686e-01 1.5125454518899639e+00 3.9131620616455809e-01  -1.0398335364011841e+00 2.3064456116779786e+00 3.9829192703527899e-01  -1.0108785543339434e+00 6.4870685044010312e-01 1.6237815773961317e-01  4.2129758726733996e-02 1.9225214288751349e+00 3.8945598673485332e-01  5.7400567267580693e-01 4.3547848161955871e-01 8.4224702312936928e-01  2.3885078090952133e-01 4.1425076166012414e-01 9.7074943713011086e-01  1.1590868297847663e+00 2.6333876757361949e+00 2.2941086212346556e-01  8.6648299642479154e-01 2.2693120288455764e+00 5.2344095393109125e-01  -5.4220603218243568e-01 2.5573281178837957e+00 3.0158962723021360e-01  -5.7076218232837661e-01 1.8911719385639627e+00 6.7672493874457484e-01  1.0348634547238473e+00 2.0664347868971515e+00 4.0406241743045646e-01  -4.7496009039037102e-03 1.3409542840901305e+00 8.7923310363592910e-01  3.4086529174249591e-01 2.2315916237901012e+00 3.2105371533164528e-01  3.6061789774019842e-01 1.9622480185899216e+00 5.2717815488967534e-01  1.8644501955367501e-02 1.8098845886265053e-01 1.0072029874223674e+00  -8.4408115125565109e-01 2.5945090943000908e+00 4.1987193973901288e-01  1.7664554609550612e-01 1.7559025462113005e+00 5.6150465932028293e-01  3.3099629128970159e-01 2.5151158032248495e+00 1.1606739031413246e-01  -3.1572782010767481e-01 5.7183697929860711e-01 9.4657254387169865e-01  -4.8735780878326784e-01 5.6760058108095879e-01 8.8772930829439922e-01  6.1196536865607880e-02 2.3821615336536657e+00 3.9027635679070805e-02  -1.7798918914066025e-01 2.1254806087792808e+00 2.7705390792018070e-01  -9.0270564111992091e-01 6.3447266271219127e-01 4.9741644238631688e-01  -9.6784042161891470e-01 8.6080106005434431e-01 3.6584635789641351e-01  -3.8008921753095953e-01 2.2631544066833795e+00 3.3554630109244071e-01  -3.1687520540947328e-01 1.9757494426281308e+00 4.8321102669772237e-01  -1.0097784833390053e+00 2.8312157552793626e-01 1.4527227644921836e-01  7.8728832914323410e-01 1.3569748047995209e-01 6.4535052785850333e-01  -6.4295268731111299e-01 1.3889103464524399e-01 7.8853403484855988e-01  -1.0710961546854958e+00 1.7592275715565355e+00 1.6955799646938405e-01  1.0346962442663434e+00 1.3500014259422504e+00 1.7923993531460639e-01  -4.9811103739785401e-01 8.7437279725397832e-01 8.7589655476800865e-01  -5.9421070988291269e-01 7.3416246768447724e-01 8.2992575245218847e-01  7.4667714135275990e-03 1.6495802445915699e+00 6.0659372500074604e-01  -9.7420307277769647e-01 1.3923595413790915e-01 2.9536800335378999e-01  -6.0901361389643438e-01 2.7399964177345351e+00 2.5042532341584950e-01  1.0187545295236919e+00 8.4924721127821079e-01 1.3665939090186949e-01  -1.7569503845704296e-01 1.7995200853634106e+00 5.2649454521306738e-01  6.8393485257099429e-01 6.3456917301195137e-01 7.6629985886980123e-01  -9.1223852194672206e-01 3.5512293322827376e-01 4.6292472843180799e-01  2.2335073079639753e-01 2.3893726134589777e+00 1.0994122152012319e-01  8.5500430276945405e-01 1.5805342024093463e+00 6.2723968786366835e-01  5.0238292784277772e-01 1.1947055073903838e+00 8.6506937089431646e-01  -3.1467107330575284e-01 2.4218782688840026e+00 1.6326703303806164e-01  8.4904282258094632e-01 1.9648853115824543e+00 6.0247063844088433e-01  9.9565001952857013e-01 1.7384842232445683e+00 4.3368949449806271e-01  -7.4434715432963872e-01 4.5603721458972729e-01 7.0580867546214454e-01  2.1274860577259186e-01 7.5103159424007482e-01 9.5664521964361071e-01  -6.0892943818784717e-01 2.1554647389895174e+00 5.6359080837050379e-01  -6.1437162854954086e-01 1.2466486197488609e+00 8.1287582091830213e-01  -7.3060703578059227e-01 1.0337029671208358e+00 7.3362602121199083e-01  -7.9758523005916115e-01 1.3447605589094624e+00 6.7958831602517289e-01  9.4603008373864184e-01 9.3625577914890867e-01 4.3064406051675763e-01  -9.7659672306499379e-01 1.1783153883685504e+00 3.8022384812137872e-01  8.9770629472499242e-01 1.2497903337619935e-01 4.7952586004381892e-01  9.1728657112491319e-01 3.8357388386828445e-01 4.5411223476082474e-01  -6.6142193137643379e-01 1.5887868748455793e+00 7.6192557997585197e-01  9.7185153224945642e-01 1.4425197282702016e+00 4.3317738583549464e-01  -9.2046233581367420e-01 2.3887692