<?xml version="1.0"?>
<VTKFile type="UnstructuredGrid"  version="0.1"  >
<UnstructuredGrid>
<Piece  NumberOfPoints="758" NumberOfCells="1386">
<Points>
<DataArray  type="Float64"  NumberOfComponents="3"  format="ascii">-1.570796326794897 3.048 0  -1.570796326794897 0 0  1.570796326794897 0 0  1.570796326794897 3.048 0  0 0 0  0 3.048 0  -1.570796326794897 1.524 0  1.570796326794897 1.524 0  -0.04609926118424437 1.524 0  0.7853981633974483 0 0  0.7623485328053261 2.262242601661362 0  -0.7853981633974483 0 0  -0.7853981633974483 3.048 0  0.392699081698724 0.7745759241961347 0  -1.570796326794897 0.762 0  -0.8084477939895706 2.0955 0  -0.68277245543452 0.8915343570675713 0  0.7853981633974483 3.048 0  0.778743707341909 1.468410948960538 0  2.780093748954961e-16 2.285302774973185 0  -1.570796326794897 2.286 0  1.570796326794897 0.762 0  1.570796326794897 2.286 0  -0.9375370967763674 1.47348297960658 0  0.9831575747762593 0.9003629142671278 0  -0.3926990816987241 0.4064697549061488 0  1.177419588818055 1.905 0  0.3692901340097942 1.880893989147954 0  -0.4920225169641509 2.564371687128368 0  0.3926990816987241 3.048 0  1.178097245096172 0 0  1.155705348811136 2.643920532523289 0  -1.178097245096172 3.048 0  -1.178097245096172 0 0  -0.1391296372266528 0.8873724190154949 0  -1.10527745318919 2.528282743051346 0  -0.9817477042468103 0.4742759268549471 0  -0.3416666987802651 1.923944646262223 0  -1.570796326794897 1.905 0  -1.156555306160469 1.030861936336814 0  0.7648449098493205 0.4764142032227 0  0.3926990816987241 0 0  -0.4820376416180818 1.326151321396512 0  0.06374421723344185 0.4545169930886408 0  0.1972735722393064 1.163324878565267 0  0.3900417218314142 2.566922767651637 0  1.570796326794897 0.381 0  1.188877612935585 1.295195418509834 0  1.179914028402171 0.5308585702661928 0  0.7660075594126428 1.865233039449035 0  0.6330293131838399 1.095171663968746 0  -1.201232463242587 2.144287146570887 0  -0.3926990816987241 0 0  -0.3926990816987241 3.048 0  1.178097245096172 3.048 0  0.7684409382397209 2.649499271873753 0  -1.236954997304436 1.7145 0  -0.1088573452899617 2.666651387486592 0  -1.570796326794897 1.143 0  -1.570796326794897 0.381 0  1.570796326794897 1.143 0  1.570796326794897 1.905 0  1.570796326794897 2.667 0  -1.570796326794897 2.667 0  -0.6730839067294777 1.743003792473746 0  1.199831389396789 2.275437921225198 0  0.3936837537618041 1.495643752599615 0  0.01539369169800942 1.928544709491661 0  0.4156551272669651 0.4219033286010089 0  0.3401546043708642 2.225103550856524 0  -0.3379897306391274 2.262671266279809 0  -1.23624174049596 0.7000907110925838 0  -1.265224057170889 1.360131453617764 0  -0.1224339018241312 1.210043725539656 0  1.289286200625578 0.9918698881707442 0  -0.7751142346211329 1.197848666814478 0  1.003546186550495 0.2660297686099683 0  0.1963495408493621 2.808538634159524 0  -0.8079023568959116 2.703551618159924 0  -0.3480226984353056 1.610059855391589 0  1.075147893506229 1.598068412087719 0  -0.8290627893979112 2.399544545867518 0  0.6965048925255637 0.7972100472372819 0  -1.257765094876752 0.3107645483825858 0  -0.6724835324263325 0.5684215760013651 0  -0.3995059642389676 0.7173610149075536 0  0.9136951972244611 1.187564504803626 0  -0.964259350608907 0.8095514380783081 0  -0.7565990314517038 0.2897049735129544 0  -0.9603859887840651 1.834914433810327 0  -0.1457055965762301 0.2521630699436873 0  0.1963495408493621 0.2041911848053476 0  0.6241974196550791 0.231695999252114 0  -0.4098815011312292 1.029160072548571 0  0.9592800715482012 2.452820690856482 0  0.9648684169153161 2.840751931000357 0  0.5890486225480862 3.048 0  0.164631037784102 1.698913854044779 0  0.5664480837073581 2.070920238540226 0  1.374107957806476 1.7145 0  0.9861079629544779 2.102471438422718 0  -1.374446785945534 3.048 0  -1.288827800789186 2.762781313597598 0  1.353232957571468 2.835634774483438 0  1.302158670506274 0.2650078124691045 0  0.1394669809465775 0.8907702620243092 0  -0.5631487221059602 2.830992231257464 0  1.372837635547072 2.483038902756259 0  -0.1493395228831287 0.618617259260858 0  -1.32327048447753 2.378769394323546 0  0.56080204725298 1.699622905297025 0  1.570796326794897 2.0955 0  0.5403456747786348 2.786446773498672 0  -0.9817477042468103 0 0  -0.5847039960246873 2.326882432521036 0  0.1225428891326576 2.526494255738436 0  -0.9817477042468103 3.048 0  -0.5522901559753841 2.071668786267058 0  -1.370864794258017 0.9075071715671403 0  -1.043891045637083 1.250611220450313 0  -0.1652643923634778 2.09141301924679 0  -1.044446740946883 2.764982067459552 0  -0.1610370079820225 1.763280243096074 0  -0.3136912237752232 2.810498886211121 0  0.5400974078002052 2.370472734822523 0  -0.7009161718414544 1.427243880175582 0  0.902907438200502 0.6735032943420574 0  -0.9879196222361604 0.2371379634274736 0  1.319268546233604 0.7412771512308228 0  0.5578373583610097 0.608241627784878 0  0.5756483102040615 1.332636919938113 0  -0.5281701577409 0.2032348774530744 0  -0.266729509930448 2.489223923247521 0  -1.570796326794897 0.5715 0  -0.2430656531629531 1.405631921096758 0  0.253622337931223 0.5884397663452474 0  1.284044721043478 1.50372037617638 0  1.570796326794897 1.3335 0  -0.9904333867980613 2.235882060371517 0  0.9871146764618406 1.395690276854986 0  -1.374446785945534 0 0  0.3981951765262902 1.020833864419675 0  0.1670583512016766 1.405384478716078 0  -1.330327693484763 1.938638984813805 0  0.2106653067452682 2.040805097078886 0  1.570796326794897 0.5715 0  1.334822181490566 2.081373939821734 0  -0.9303227889097604 1.033236710715967 0  -1.34639228476592 1.150776798768373 0  -1.570796326794897 0.1905 0  1.106697207481837 1.099709897393925 0  0.4137866939027022 0.2104288000383385 0  -1.570796326794897 2.0955 0  0.9761377489246634 0.4754251272674608 0  1.377108465632662 0.4605024587280874 0  1.108114944719677 0.7297638044096917 0  0.3695908229138113 1.285681859811955 0  0.9799112840676307 1.800306505551499 0  -0.001696842075803034 1.042028929293442 0  1.366537356420357 1.185723700290463 0  -1.385029840108318 0.47625 0  0.05842649915411911 0.6874537157920781 0  -1.183268988745763 0.4997334438341218 0  -0.6073502281622543 1.081347079085406 0  -1.026941765261019 2.031536576622642 0  -1.570796326794897 2.8575 0  0.8159726599830506 1.011928543199529 0  0.7652782693277244 2.849245002237192 0  -0.5252326280373281 1.520125074885265 0  0.7648326174724897 2.063743853392348 0  0.757099741434616 1.666331708950521 0  -0.1963495408493621 3.048 0  -0.005410422648647092 2.843333256403111 0  -1.395368347654653 2.19075 0  1.374446785945534 0 0  0.9817477042468103 3.048 0  0.1963495408493621 0 0  -0.1963495408493621 0 0  0.5890486225480862 0 0  0.1963495408493621 3.048 0  0.9817477042468103 0 0  1.374446785945534 3.048 0  -0.5890486225480862 3.048 0  -0.5890486225480862 0 0  -0.06865319188571758 2.471928549109083 0  1.159049337209348 2.838090892449816 0  0.5817075150535711 2.596909954318943 0  0.7656515661107315 2.455866896253367 0  0.9620790410056582 2.647119292933887 0  0.3676829480103987 1.68739481709134 0  -0.8886101495223063 2.878912500124773 0  -0.3317793704126089 0.1873756770788371 0  -1.383208664444332 2.577695923010364 0  -1.043597917648523 1.648216005744782 0  -1.362178343413552 1.546177620526679 0  -1.570796326794897 1.7145 0  -0.8462722504471433 1.648434957877788 0  -0.588076822054871 0.3899352838051667 0  1.570796326794897 2.8575 0  -1.570796326794897 0.9525 0  1.570796326794897 0.1905 0  1.570796326794897 1.7145 0  1.570796326794897 0.9525 0  -1.570796326794897 1.3335 0  1.570796326794897 2.4765 0  -1.570796326794897 2.4765 0  0.8103777117362174 0.287468585434799 0  -1.145334531235929 1.881885620422454 0  -0.8620560674467429 0.6361265362229395 0  -0.321688879263093 1.207848147265888 0  -0.7798551871678058 1.904240998338365 0  -0.4724954359209014 1.769587110195458 0  -0.667402576232105 2.495985359319255 0  0.5365063314111709 0.8945566719544227 0  0.1855702280441107 2.342745654422604 0  0.55510120733165 1.88540118775351 0  1.188295809121239 2.460939894898248 0  1.38587897409014 2.260870763688798 0  1.383978812419919 1.901097375082534 0  -0.2265735189171196 1.049795314962436 0  0.7387890113368257 1.246392780742437 0  0.5763234466275948 1.516457524623135 0  -0.203279258075353 0.4348372558382012 0  -1.179202350299698 1.523245956950107 0  -1.151844216720993 2.318990544544152 0  -1.410806081599612 0.6547540757597369 0  0.04190096621848406 2.108399609871347 0  0.5925649981629265 0.4343292987553075 0  0.2371113691258682 0.4102816185532077 0  1.334103818253725 2.657728219912091 0  0.9405077369493808 2.275181409651143 0  -0.633962040105568 2.669303984283053 0  -0.6045614816381242 1.904349918307267 0  1.159697673803787 2.079238591118184 0  -0.004643801590645341 1.347662554528907 0  0.3691400131247499 2.395423267764724 0  0.3855005143298051 2.055603978165229 0  0.01839821075864462 0.1788084577298442 0  -0.9568120219060965 2.61629404172056 0  0.1783135820912846 1.871116340262054 0  0.3649950158263953 2.745288921627024 0  -0.3142054567155264 0.5671999812317062 0  -0.4933549623779417 0.564740705097546 0  0.06092775470575962 2.685867440722903 0  -0.1801827362748675 2.337517890002858 0  -1.063355415037434 0.6386189748554 0  -1.205242865599393 0.8676070232612285 0  -0.4176020549597784 2.412196127179313 0  -0.3347051678178828 2.093252344225509 0  -1.427772711006951 0.2857500000000001 0  0.8835729338221293 0.1362887052191026 0  -0.6831011505337878 0.1389086130988801 0  -1.403875662049666 1.77648180985222 0  1.394165436236593 1.362588987767805 0  -0.5007942298153729 0.8700626692351643 0  -0.6093220848169366 0.7321530406295067 0  0.007534593095922887 1.760126887057542 0  -1.276272015520854 0.140425968067263 0  -0.7270478511000733 2.847016806985676 0  1.436331331726002 0.85725 0  -0.1770320080670663 1.927167796173981 0  0.7200726153501196 0.6345534912379586 0  -1.099983122078282 0.3577316115390257 0  0.2324759135153202 2.648405702327079 0  0.9054371869972004 1.582409569434113 0  0.5000672234640285 1.188708149930449 0  -0.340793734207542
[...]
<PointData  Vectors="phi"> 
<DataArray  type="Float64"  Name="phi"  NumberOfComponents="3" format="ascii">-1.1790859580994066e+00 3.0396631749832981e+00 6.2594731565017816e-04  -1.0160096076477778e+00 1.0465628104489602e-07 -9.7500260930268089e-06  1.0160097305159996e+00 9.0763692731480765e-08 -1.1579055167927925e-05  1.1791539397790756e+00 3.0396401903974284e+00 5.2710613035723895e-04  -6.1298751370512687e-06 2.9827108401189884e-06 1.0160276082850652e+00  -1.3476880586709762e-03 2.4678904251864870e+00 -6.5321556971709904e-01  -1.0866845974593518e+00 1.5114224780725896e+00 -1.7051427956218274e-05  1.0873354083093925e+00 1.5113183865734103e+00 -2.7224558012203975e-05  -4.7211786660743008e-02 1.2766763286467682e+00 3.0366552368621252e-01  7.1842692716498280e-01 -3.2338313880239333e-07 7.1841622967299013e-01  5.7921854437083453e-01 2.1442476254223664e+00 2.2927882627262730e-01  -7.1842445828740487e-01 6.3257989033302666e-07 7.1841790251585136e-01  -5.7406004358701945e-01 2.7991515821842285e+00 -2.0387783193363557e-01  3.8297096961044241e-01 7.6545851366430440e-01 8.5797531203148025e-01  -1.0219098029049347e+00 7.5677136224035491e-01 -2.2510500347131656e-05  -6.3093375068211033e-01 2.0214676008080197e+00 3.4157373637465188e-01  -6.5958515846886856e-01 8.9489186230024509e-01 7.7866143031665636e-01  5.7309075881737204e-01 2.7983459303166791e+00 -2.0611688143174706e-01  6.8680881468966282e-01 1.4562340359759949e+00 6.0565291584533054e-01  -9.7556403877941181e-04 1.8820465249875173e+00 -1.6136604824430720e-01  -1.1735835655657423e+00 2.2715601971271391e+00 6.9288869030638457e-05  1.0219920037529118e+00 7.5674324493827427e-01 -3.0414691397048142e-05  1.1743191348066724e+00 2.2713929342747630e+00 -8.6654913159406584e-05  -8.4043159472866003e-01 1.4733201447466542e+00 5.6492862015414380e-01  8.7866848900005690e-01 8.9893950206593765e-01 5.7137996757215559e-01  -3.9589860162442708e-01 4.0846921573593314e-01 9.3748211732532605e-01  9.9941602748165437e-01 1.8986833704436206e+00 3.6288994733918928e-01  3.2663574496358644e-01 1.6550532466088537e+00 2.0961526648723264e-01  -3.9793661770693345e-01 2.2663821900089887e+00 -1.1353271697122928e-01  3.2165638634429949e-01 2.6132861080112746e+00 -4.5871598221078164e-01  9.3865805205727504e-01 -4.0964413940441693e-07 3.8880540315317819e-01  8.7933291546718817e-01 2.6034058994903111e+00 1.9797466083104456e-01  -8.5156055649314388e-01 2.9695126528158360e+00 3.2234449842319393e-02  -9.3865762700365696e-01 -1.0614391341832874e-07 3.8881454187808961e-01  -1.3868259699804744e-01 7.9923009814643775e-01 7.2729299551023230e-01  -8.4795232549436039e-01 2.4876597714330826e+00 2.3611058818061773e-01  -8.5517550467846670e-01 4.7294786178037945e-01 5.6802601486063864e-01  -3.0763709207198603e-01 1.6780437066541476e+00 1.6913623216394921e-01  -1.1368605929860665e+00 1.8897249463480998e+00 -2.8036296407899897e-05  -9.6540861511648424e-01 1.0263172456502934e+00 4.1394652272951044e-01  7.1687363176862695e-01 4.7677407140614020e-01 7.3897469948962202e-01  3.8881475638983382e-01 1.6700697863234507e-06 9.3866903930549284e-01  -4.2764329830787567e-01 1.2534853869785842e+00 5.9496646264541575e-01  6.4987700935318582e-02 4.5313068641071264e-01 9.7901105134982525e-01  1.9202877396630186e-01 1.0231424432261986e+00 5.6501287034023773e-01  3.3190789121264558e-01 2.2198978198981179e+00 -1.8163449375105770e-01  1.0190848573892357e+00 3.7843513222693403e-01 -1.9483273854994918e-05  9.9825569171213557e-01 1.2892550165192442e+00 3.8233710630924117e-01  9.4773485505683919e-01 5.2814437229157818e-01 3.8892721370044558e-01  6.1962947737063212e-01 1.8083211412540439e+00 4.3616721911015288e-01  5.9117994378801364e-01 1.0896341062876709e+00 7.4034602747037248e-01  -9.9747158658747992e-01 2.1349166320521462e+00 3.1929684813413173e-01  -3.8880251948189731e-01 -8.6591503039981407e-08 9.3866190075395317e-01  -3.2360241167307613e-01 2.6138999883274581e+00 -4.5726279522349900e-01  8.5095661431484027e-01 2.9687493419540316e+00 2.9597714648649232e-02  5.6596460654519354e-01 2.4669119675608560e+00 1.5362317275352547e-02  -1.0404054592193788e+00 1.7068431438698692e+00 3.2829167613670740e-01  -1.0930088480032560e-01 2.1968793538083284e+00 -3.7780669337987344e-01  -1.0409609649022464e+00 1.1347074234552239e+00 -2.2452708073373817e-05  -1.0190831541668228e+00 3.7844896523112126e-01 -2.4680216954752406e-05  1.0412881665392786e+00 1.1346501068016779e+00 -1.3580424660285639e-05  1.1375770233672928e+00 1.8895877837344426e+00 -5.1726032794090955e-05  1.1883568716744406e+00 2.6558709754563634e+00 -8.7720872992184707e-05  -1.1875077708590422e+00 2.6559962861068258e+00 4.7985349877837933e-05  -5.5290807270700937e-01 1.6724080489745339e+00 4.6086067082407672e-01  9.7956389302984692e-01 2.2627901178252530e+00 2.9725552903106967e-01  3.5048978096872380e-01 1.3562478856537210e+00 4.5190177395083048e-01  1.4779375246530660e-02 1.5969028236185394e+00 5.4124846410668379e-02  4.1813475509709047e-01 4.2399194090271353e-01 9.2907337587907934e-01  3.0322339615987276e-01 1.9197001366515292e+00 -1.1563096455711448e-02  -3.0282429675776079e-01 1.9495583066983229e+00 -3.3927902076043376e-02  -9.7139029047144598e-01 6.9623888162971492e-01 3.3543273607994339e-01  -1.0277886406503660e+00 1.3522161179630476e+00 3.0811669985949042e-01  -1.2254012333489764e-01 1.0414352735305792e+00 5.1376772380609903e-01  1.0004095103646189e+00 9.8594508471660680e-01 2.8426298663482502e-01  -7.1993248277010824e-01 1.1988540081212875e+00 6.8588993136886911e-01  8.6128020184089527e-01 2.6510722414491900e-01 5.4752135781783506e-01  1.8289348676090636e-01 2.3364440469773458e+00 -4.2978628253122997e-01  -5.9156596075145373e-01 2.5298081499151954e+00 1.0934616809076002e-02  -3.1496689962702806e-01 1.4292154142557323e+00 3.6012746348524577e-01  9.4281840943827078e-01 1.5957982143856710e+00 4.6568421236298635e-01  -6.2040242601153561e-01 2.2871008538520128e+00 1.9314823141976811e-01  6.7444545015263591e-01 8.0018525880714431e-01 7.8129668516491668e-01  -9.7032721289161905e-01 3.0897164446982350e-01 3.1366990438119863e-01  -6.5024342512723987e-01 5.6996629613028649e-01 8.0208632355379728e-01  -3.9432685155114738e-01 7.1442345917482497e-01 8.8291497348585202e-01  8.4102023039339024e-01 1.1891242410740033e+00 6.1614055081622954e-01  -8.6265687086853526e-01 8.0825697169548716e-01 5.8710074491824693e-01  -7.0368768428119954e-01 2.8976306451502487e-01 7.4162723109233453e-01  -8.1328790709463405e-01 1.8229017153559126e+00 4.7227035000119355e-01  -1.4865680203095286e-01 2.5337876624418904e-01 9.9715991993417730e-01  1.9942210064494290e-01 2.0532467645460745e-01 9.9132147755856337e-01  5.9843356443791962e-01 2.3220336433112074e-01 8.2636466506879636e-01  -3.8251470399787540e-01 9.8529319026159945e-01 7.3056507798519199e-01  7.2173339254318314e-01 2.3797349383167981e+00 2.2494052196929973e-01  6.9777655675086780e-01 2.7098925862260468e+00 2.3533198930355499e-02  4.4913119289130532e-01 2.7051946196950891e+00 -3.3342821508201625e-01  1.6097089704391249e-01 1.4356220285127295e+00 2.2210052436573463e-01  4.5406220257737773e-01 1.8992115810081218e+00 2.1944712044847300e-01  1.0905138976822584e+00 1.7023696982571013e+00 1.9829976073469818e-01  7.9570672722095104e-01 2.0751736013076130e+00 3.8159352695197013e-01  -1.0326289427343576e+00 3.0247644128705211e+00 1.0163942882062509e-01  -9.9360186107055815e-01 2.7388818859956134e+00 1.7038064875854481e-01  1.0454454111211560e+00 2.8167401000217471e+00 1.4436887287492123e-01  9.8254166941176768e-01 2.6341189719755953e-01 2.7027173618285588e-01  1.3851539169469304e-01 8.0150324906599968e-01 7.2452229415441294e-01  -4.3477933386908602e-01 2.5185607299118340e+00 -2.2057997060020323e-01  1.1054163184050128e+00 2.4712689351775383e+00 1.7825716573882117e-01  -1.4924800260390070e-01 6.0193987673508997e-01 9.0897167096245668e-01  -1.0757572415260266e+00 2.3672690352123817e+00 2.1991692952784675e-01  4.6672190268048680e-01 1.5921556907010681e+00 4.2656824062960375e-01  1.1583978900931569e+00 2.0801087854432270e+00 -2.3107816033014586e-05  4.2024418869343438e-01 2.4707138896795713e+00 -2.1136422118534059e-01  -8.4477544929471304e-01 1.4544099944635760e-07 5.6446289859418453e-01  -4.5918291648808085e-01 2.1172581476068464e+00 8.5022477952359760e-02  1.2037276934202343e-01 2.0879194101078391e+00 -2.8953739250411675e-01  -7.0363283351921035e-01 2.8894503692843738e+00 -7.9533585814502969e-02  -4.4564579346837518e-01 1.8937008822549224e+00 2.1158588330617545e-01  -1.0104276074566179e+00 9.0166716862486240e-01 2.0254519538751908e-01  -9.2805687251407820e-01 1.2489008848740362e+00 5.1394500565376056e-01  -1.6279235819841711e-01 1.7497038336761435e+00 -1.4372536669007311e-02  -7.6499818138915432e-01 2.6776219186459342e+00 1.0794739288784651e-01  -1.5895884826070425e-01 1.4860705291025231e+00 1.8217260201600532e-01  -2.7379045664667090e-01 2.3860064306003101e+00 -3.6654942305243066e-01  4.3013211916546434e-01 2.1308011084725322e+00 2.8926735030208893e-02  -6.1582046124309486e-01 1.4048942127632169e+00 6.1757905928229495e-01  8.1913849164860153e-01 6.7286577326748209e-01 6.3670710807706143e-01  -8.5203351412906736e-01 2.3635373872678078e-01 5.6064876727189905e-01  9.9432413726544011e-01 7.3672900791839813e-01 2.5389559841584930e-01  5.5290653914164289e-01 6.1104935330435484e-01 8.6377189143508237e-01  5.0787309026831173e-01 1.2896813647062297e+00 6.2839272571610139e-01  -5.1563697402827036e-01 2.0393570866305791e-01 8.7866676010654110e-01  -2.4725001083671913e-01 2.1038713043581274e+00 -2.0656932055258331e-01  -1.0198495117161346e+00 5.6761826772855573e-01 -1.5140746899181110e-05  -2.3225150166126307e-01 1.2271354161901900e+00 4.3264659218116941e-01  2.5451584343518058e-01 5.8443743233165113e-01 9.3111133534131241e-01  1.0466857772663658e+00 1.4946909293778674e+00 2.8855664419620386e-01  1.0621177466946845e+00 1.3230366390064952e+00 -1.5961613476332859e-05  -7.7981322211142312e-01 2.1975797511837678e+00 3.3275525218629437e-01  8.8780470924897581e-01 1.3959474576653526e+00 5.4681676806008717e-01  -9.9647546581987101e-01 -5.5893103985863095e-07 1.9820680867689922e-01  3.7189229857157785e-01 9.7488775273236405e-01 7.3030764208526466e-01  1.6360580964869822e-01 1.2040258127265859e+00 4.0345387743338751e-01  -1.0902599107581050e+00 1.9277414090573102e+00 2.3693485954197971e-01  2.0171475974650249e-01 1.7221585414319778e+00 3.2884861150601088e-02  1.0198818052585319e+00 5.6759585866686968e-01 -2.7693346504297302e-05  1.0952748153092042e+00 2.0704174748310971e+00 2.2833290772667666e-01  -8.5322749540073528e-01 1.0335354896849756e+00 6.1330400329854362e-01  -1.0241883270046177e+00 1.1432415950798112e+00 2.2752919610418448e-01  -1.0178406435848981e+00 1.8926295825368580e-01 -3.3441246272821344e-05  9.5156591344105668e-01 1.0959565511378044e+00 4.6084501177228399e-01  4.1168320684286985e-01 2.1144523433516166e-01 9.3007475819040963e-01  -1.1575038432360827e+00 2.0802308727335719e+00 -2.8988165974925424e-05  8.5222423367278433e-01 4.7413464838585545e-01 5.7286774744230318e-01  1.0012865666541848e+00 4.5754643389509519e-01 1.9605484673027732e-01  9.2728336722498572e-01 7.2677007734288945e-01 4.5761817270130611e-01  3.3712774943215751e-01 1.1783845309644583e+00 5.6372953475004983e-01  8.3723044842263727e-01 1.7917604797062627e+00 4.7662105683112360e-01  -2.0794672331069818e-03 9.0004153138310050e-01 6.0701949316790338e-01  1.0310567910867272e+00 1.1776704866811984e+00 2.0731744399435423e-01  -1.0028305873789791e+00 4.7319413539072985e-01 1.8811261570458024e-01  5.8271487943437693e-02 6.4522086072745655e-01 8.5406151287148002e-01  -9.4815625801688663e-01 4.9716199554538665e-01 3.8560959498507386e-01  -5.6741550102960248e-01 1.0737640399862416e+00 7.4672615281085641e-01  -8.4855226866947286e-01 2.0156747436023208e+00 4.0416669664455024e-01  -1.1856168211129512e+00 2.8482878809675998e+00 1.7099492693005419e-04  7.6952459543891361e-01 1.0146789937843859e+00 6.9434307741566736e-01  5.6040139030257641e-01 2.6284065363457998e+00 -1.0220270715923267e-01  -4.5074144008934103e-01 1.4299196768269034e+00 5.0861043335195610e-01  5.9719794766419376e-01 1.9781457029707947e+00 3.3633234733186806e-01  6.3700665640071030e-01 1.6313073323613025e+00 5.2501266606461261e-01  -1.8157560060468184e-01 2.5277136757364733e+00 -5.7329276540010110e-01  -6.7669723048271145e-03 2.3229262444101240e+00 -5.0365096022644973e-01  -1.1261999060963763e+00 2.1784565220833239e+00 1.7174804746410471e-01  9.9647639813588851e-01 -5.4721739559007886e-07 1.9820957815087922e-01  7.0295906539351560e-01 2.8886350439341073e+00 -8.2121782889078773e-02  1.9820881734725190e-01 5.9329167198633446e-07 9.9649004162817167e-01  -1.9821563514627924e-01 -8.8929844543035179e-07 9.9648143495547814e-01  5.6445658588632353e-01 1.5019592155482702e-07 8.4477601955149717e-01  1.7905457017644341e-01 2.5273427433510656e+00 -5.7425392543536657e-01  8.4477847399978834e-01 -1.7569529140936391e-07 5.6446219213972959e-01  1.0316996945002126e+00 3.0246270960348278e+00 9.9800211304419781e-02  -4.5058724547851825e-01 2.7058857134541112e+00 -3.3160159056820637e-01  -5.6446309590497135e-01 -7.2487080507171109e-07 8.4477254758136144e-01  -7.0241222862523905e-02 2.0351463035279691e+00 -2.6838549044980631e-01  8.5676326972642391e-01 2.7778112352640485e+00 1.1750558411193930e-01  4.5023686547725905e-01 2.3356469162234892e+00 -7.4902417069269131e-02  5.7081917133335536e-01 2.3064194207148949e+00 1.2380728335669607e-01  7.0627586898902894e-01 2.5467488718896960e+00 1.2730920677086002e-01  3.2758456553266641e-01 1.4991243481037575e+00 3.2389620812744585e-01  -6.4296805631975695e-01 2.7093884660148158e+00 -4.0376579438846837e-02  -3.3309088093486278e-01 1.8838666758115488e-01 9.5907403041857464e-01  -1.1059751825446276e+00 2.5657382979081604e+00 1.6544856328720600e-01  -9.1462456035005379e-01 1.6460471778094552e+00 4.8039530542915887e-01  -1.0699447632555223e+00 1.5352186131035719e+00 2.1123430272746679e-01  -1.1125533024858443e+00 1.7001853582622897e+00 -2.3883612398206196e-05  -7.2802801043592580e-01 1.6334690813716490e+00 5.4271565895699825e-01  -5.7339435994511223e-01 3.9117807678925115e-01 8.4969775026719463e-01  1.1864087751509460e+00 2.8482026205879665e+00 -1.7872850127326139e-06  -1.0278812310491787e+00 9.4586917516705227e-01 -1.6906495504740409e-05  1.0178351736957256e+00 1.8925631900765766e-01 -2.9309577030162899e-05  1.1133225227109382e+00 1.7000563978465029e+00 -1.6553073645051438e-05  1.0280333849075547e+00 9.4583146818357422e-01 -4.7304425552421934e-05  -1.0616053109177981e+00 1.3231167381752391e+00 -2.8327896964091599e-05  1.1842979992870664e+00 2.4634841754208945e+00 -4.0410951242962012e-05  -1.1834621846543738e+00 2.4636109105683026e+00 8.1437125069884692e-05  7.4214141302923464e-01 2.8728640924732618e-01 7.0287349447808645e-01  -9.7658426752077909e-01 1.8763216659947257e+00 3.8718672331787801e-01  -7.9136916997619011e-01 6.3589468378094105e-01 6.6881234859130390e-01  -3.0029230789424888e-01 1.0990125303579439e+00 5.8880413216703875e-01  -6.2788708879195287e-01 1.8469254715174270e+00 4.2403969146704368e-01  -4.0120456274705446e-01 1.6115164425642050e+00 3.3729525858219328e-01  -5.0584834764242037e-01 2.2948911801411978e+00 4.1342283842535604e-02  5.1655604938400346e-01 8.9190668904353754e-01 8.1449372933149611e-01  1.7890978770345589e-01 1.9570541114874591e+00 -1.5788452457034036e-01  4.5328419727384933e-01 1.7424290854923472e+00 3.1876103047876619e-01  9.4073487888719431e-01 2.4394247048179083e+00 2.5817193913086189e-01  1.1223487225332835e+00 2.2488757548222682e+00 1.7814727955098567e-01  1.1090079056951505e+00 1.8884329771600001e+00 1.8697626860395161e-01  -2.1990869696418888e-01 9.4405616652022128e-01 6.4766331232383612e-01  6.7783579260677473e-01 1.2431683588939881e+00 6.8113596437195545e-01  4.9184406894934052e-01 1.4457752177547105e+00 5.3394933245861154e-01  -2.0746681433996325e-01 4.3575596291736496e-01 9.7627613867016971e-01  -1.0069976094708046e+00 1.5175874997988750e+00 3.8674474326837438e-01  -9.2741809559778876e-01 2.3010352613979794e+00 3.0314107315009037e-01  -1.0089468528370567e+00 6.5046717186152114e-01 1.6221619549358007e-01  4.1437183406390639e-02 1.7419913484402507e+00 -5.2880324929425800e-02  5.7886775163456983e-01 4.3578720398097776e-01 8.4780036635570810e-01  2.4184867042312569e-01 4.1171641095039024e-01 9.7470643871989326e-01  1.0537588635888775e+00 2.6423179359601434e+00 1.8088078102979455e-01  7.2619971752792656e-01 2.2191889379936622e+00 3.0228734856129885e-01  -4.8140267604765935e-01 2.4205532910495067e+00 -8.0584974605810919e-02  -4.8769572339028561e-01 1.7801545652405550e+00 3.3857062718386943e-01  9.6817594065332924e-01 2.0701818780124155e+00 3.4976143005026100e-01  -5.2665708245477659e-03 1.1362405685333838e+00 4.1136793202716038e-01  3.2143687299812368e-01 2.0705153063522901e+00 -9.4674154030240473e-02  3.3634438126380284e-01 1.8028976714931690e+00 1.1553986911666508e-01  1.8753664339553319e-02 1.7977783008082715e-01 1.0088451959513789e+00  -7.0475987917314575e-01 2.5193512982066877e+00 1.4326128656760642e-01  1.7325600713271344e-01 1.5765881365252574e+00 1.2237129029132181e-01  3.0970074973987038e-01 2.3546776638778999e+00 -2.9972781568078399e-01  -3.1675700448679522e-01 5.6747881507092368e-01 9.3650855810967915e-01  -4.9333482932490258e-01 5.6745891180435870e-01 8.9383636329338778e-01  6.0194751597060808e-02 2.2034549508847112e+00 -4.0062520926214229e-01  -1.7596635493617438e-01 1.9515618872289224e+00 -1.5617235407808178e-01  -9.0308590754105311e-01 6.3629850334671045e-01 4.9780038228602325e-01  -9.6990539961936728e-01 8.6315127129504321e-01 3.6629679929721054e-01  -3.5470872006840326e-01 2.1068542059711439e+00 -7.3257107419909262e-02  -3.0157861563204474e-01 1.8113643428811097e+00 6.4556438538316233e-02  -1.0084250854625552e+00 2.8390726267205213e-01 1.4513924291395844e-01  7.8722886277507398e-01 1.3600358184144279e-01 6.4524142590400080e-01  -6.4346867177408995e-01 1.3903575991319853e-01 7.8879737213912848e-01  -1.1030191085329522e+00 1.7635798409152961e+00 1.6854797553220316e-01  1.0544220489245957e+00 1.3526092325974306e+00 1.7946485803787093e-01  -4.8321714687292638e-01 8.6557175320695390e-01 8.2517724028340744e-01  -5.9867589679302535e-01 7.3542220623413435e-01 8.3091848019597414e-01  6.9023980321008573e-03 1.4622750618002813e+00 1.5625365193516730e-01  -9.7364947002009128e-01 1.3961626148744191e-01 2.9525343643196156e-01  -5.3685343718480660e-01 2.6094293802632436e+00 -1.2331497466848640e-01  1.0171072803942505e+00 8.5149178214600041e-01 1.3650448112206648e-01  -1.7355562922226483e-01 1.6212826317472815e+00 8.8611213137039818e-02  6.9048169565257411e-01 6.3603718597297731e-01 7.7177248911155116e-01  -9.1109493601391944e-01 3.5613747008582924e-01 4.6256396316894405e-01  2.1577482298082651e-01 2.2195998452160239e+00 -3.1839731282427952e-01  7.9624610867605050e-01 1.5776703313942941e+00 5.5273647500286061e-01  4.5235518532732327e-01 1.1446957661610164e+00 6.7558983538098205e-01  -2.9839879680629922e-01 2.2599176420264926e+00 -2.5416030258774597e-01  7.2811800528468262e-01 1.9320871400935884e+00 4.2553859104000052e-01  9.7692436393707505e-01 1.7447636536096047e+00 4.0937175365193718e-01  -7.4629258460847503e-01 4.5710075969427172e-01 7.0754411554128072e-01  2.0669268686533909e-01 7.0847528913221069e-01 8.3950800684151983e-01  -5.1919678002624237e-01 2.0421110121829775e+00 2.1996755710353380e-01  -5.6034609210782160e-01 1.2220330231573411e+00 6.8307225888567846e-01  -7.2592474099045612e-01 1.0367161152721618e+00 7.1989861577355152e-01  -7.6460611650500043e-01 1.3452465660058148e+00 6.3098697262779235e-01  9.5201728144380460e-01 9.3885700339881673e-01 4.3196056122776261e-01  -9.8977219586413168e-01 1.1814532912130458e+00 3.8131457132291519e-01  8.9739464286749993e-01 1.2530897880064990e-01 4.7939540974170908e-01  9.1611853869890369e-01 3.8467048896558881e-01 4.5376786519360918e-01  -5.6817726369722588e-01 1.5351869988369695e+00 5.3953354924969987e-01  9.8280189290648612e-01 1.4475895607125038e+00 4.2834638102093758e-01  -7.74