<?xml version="1.0"?>
<VTKFile type="UnstructuredGrid"  version="0.1"  >
<UnstructuredGrid>
<Piece  NumberOfPoints="758" NumberOfCells="1386">
<Points>
<DataArray  type="Float64"  NumberOfComponents="3"  format="ascii">-1.570796326794897 3.048 0  -1.570796326794897 0 0  1.570796326794897 0 0  1.570796326794897 3.048 0  0 0 0  0 3.048 0  -1.570796326794897 1.524 0  1.570796326794897 1.524 0  -0.04609926118424437 1.524 0  0.7853981633974483 0 0  0.7623485328053261 2.262242601661362 0  -0.7853981633974483 0 0  -0.7853981633974483 3.048 0  0.392699081698724 0.7745759241961347 0  -1.570796326794897 0.762 0  -0.8084477939895706 2.0955 0  -0.68277245543452 0.8915343570675713 0  0.7853981633974483 3.048 0  0.778743707341909 1.468410948960538 0  2.780093748954961e-16 2.285302774973185 0  -1.570796326794897 2.286 0  1.570796326794897 0.762 0  1.570796326794897 2.286 0  -0.9375370967763674 1.47348297960658 0  0.9831575747762593 0.9003629142671278 0  -0.3926990816987241 0.4064697549061488 0  1.177419588818055 1.905 0  0.3692901340097942 1.880893989147954 0  -0.4920225169641509 2.564371687128368 0  0.3926990816987241 3.048 0  1.178097245096172 0 0  1.155705348811136 2.643920532523289 0  -1.178097245096172 3.048 0  -1.178097245096172 0 0  -0.1391296372266528 0.8873724190154949 0  -1.10527745318919 2.528282743051346 0  -0.9817477042468103 0.4742759268549471 0  -0.3416666987802651 1.923944646262223 0  -1.570796326794897 1.905 0  -1.156555306160469 1.030861936336814 0  0.7648449098493205 0.4764142032227 0  0.3926990816987241 0 0  -0.4820376416180818 1.326151321396512 0  0.06374421723344185 0.4545169930886408 0  0.1972735722393064 1.163324878565267 0  0.3900417218314142 2.566922767651637 0  1.570796326794897 0.381 0  1.188877612935585 1.295195418509834 0  1.179914028402171 0.5308585702661928 0  0.7660075594126428 1.865233039449035 0  0.6330293131838399 1.095171663968746 0  -1.201232463242587 2.144287146570887 0  -0.3926990816987241 0 0  -0.3926990816987241 3.048 0  1.178097245096172 3.048 0  0.7684409382397209 2.649499271873753 0  -1.236954997304436 1.7145 0  -0.1088573452899617 2.666651387486592 0  -1.570796326794897 1.143 0  -1.570796326794897 0.381 0  1.570796326794897 1.143 0  1.570796326794897 1.905 0  1.570796326794897 2.667 0  -1.570796326794897 2.667 0  -0.6730839067294777 1.743003792473746 0  1.199831389396789 2.275437921225198 0  0.3936837537618041 1.495643752599615 0  0.01539369169800942 1.928544709491661 0  0.4156551272669651 0.4219033286010089 0  0.3401546043708642 2.225103550856524 0  -0.3379897306391274 2.262671266279809 0  -1.23624174049596 0.7000907110925838 0  -1.265224057170889 1.360131453617764 0  -0.1224339018241312 1.210043725539656 0  1.289286200625578 0.9918698881707442 0  -0.7751142346211329 1.197848666814478 0  1.003546186550495 0.2660297686099683 0  0.1963495408493621 2.808538634159524 0  -0.8079023568959116 2.703551618159924 0  -0.3480226984353056 1.610059855391589 0  1.075147893506229 1.598068412087719 0  -0.8290627893979112 2.399544545867518 0  0.6965048925255637 0.7972100472372819 0  -1.257765094876752 0.3107645483825858 0  -0.6724835324263325 0.5684215760013651 0  -0.3995059642389676 0.7173610149075536 0  0.9136951972244611 1.187564504803626 0  -0.964259350608907 0.8095514380783081 0  -0.7565990314517038 0.2897049735129544 0  -0.9603859887840651 1.834914433810327 0  -0.1457055965762301 0.2521630699436873 0  0.1963495408493621 0.2041911848053476 0  0.6241974196550791 0.231695999252114 0  -0.4098815011312292 1.029160072548571 0  0.9592800715482012 2.452820690856482 0  0.9648684169153161 2.840751931000357 0  0.5890486225480862 3.048 0  0.164631037784102 1.698913854044779 0  0.5664480837073581 2.070920238540226 0  1.374107957806476 1.7145 0  0.9861079629544779 2.102471438422718 0  -1.374446785945534 3.048 0  -1.288827800789186 2.762781313597598 0  1.353232957571468 2.835634774483438 0  1.302158670506274 0.2650078124691045 0  0.1394669809465775 0.8907702620243092 0  -0.5631487221059602 2.830992231257464 0  1.372837635547072 2.483038902756259 0  -0.1493395228831287 0.618617259260858 0  -1.32327048447753 2.378769394323546 0  0.56080204725298 1.699622905297025 0  1.570796326794897 2.0955 0  0.5403456747786348 2.786446773498672 0  -0.9817477042468103 0 0  -0.5847039960246873 2.326882432521036 0  0.1225428891326576 2.526494255738436 0  -0.9817477042468103 3.048 0  -0.5522901559753841 2.071668786267058 0  -1.370864794258017 0.9075071715671403 0  -1.043891045637083 1.250611220450313 0  -0.1652643923634778 2.09141301924679 0  -1.044446740946883 2.764982067459552 0  -0.1610370079820225 1.763280243096074 0  -0.3136912237752232 2.810498886211121 0  0.5400974078002052 2.370472734822523 0  -0.7009161718414544 1.427243880175582 0  0.902907438200502 0.6735032943420574 0  -0.9879196222361604 0.2371379634274736 0  1.319268546233604 0.7412771512308228 0  0.5578373583610097 0.608241627784878 0  0.5756483102040615 1.332636919938113 0  -0.5281701577409 0.2032348774530744 0  -0.266729509930448 2.489223923247521 0  -1.570796326794897 0.5715 0  -0.2430656531629531 1.405631921096758 0  0.253622337931223 0.5884397663452474 0  1.284044721043478 1.50372037617638 0  1.570796326794897 1.3335 0  -0.9904333867980613 2.235882060371517 0  0.9871146764618406 1.395690276854986 0  -1.374446785945534 0 0  0.3981951765262902 1.020833864419675 0  0.1670583512016766 1.405384478716078 0  -1.330327693484763 1.938638984813805 0  0.2106653067452682 2.040805097078886 0  1.570796326794897 0.5715 0  1.334822181490566 2.081373939821734 0  -0.9303227889097604 1.033236710715967 0  -1.34639228476592 1.150776798768373 0  -1.570796326794897 0.1905 0  1.106697207481837 1.099709897393925 0  0.4137866939027022 0.2104288000383385 0  -1.570796326794897 2.0955 0  0.9761377489246634 0.4754251272674608 0  1.377108465632662 0.4605024587280874 0  1.108114944719677 0.7297638044096917 0  0.3695908229138113 1.285681859811955 0  0.9799112840676307 1.800306505551499 0  -0.001696842075803034 1.042028929293442 0  1.366537356420357 1.185723700290463 0  -1.385029840108318 0.47625 0  0.05842649915411911 0.6874537157920781 0  -1.183268988745763 0.4997334438341218 0  -0.6073502281622543 1.081347079085406 0  -1.026941765261019 2.031536576622642 0  -1.570796326794897 2.8575 0  0.8159726599830506 1.011928543199529 0  0.7652782693277244 2.849245002237192 0  -0.5252326280373281 1.520125074885265 0  0.7648326174724897 2.063743853392348 0  0.757099741434616 1.666331708950521 0  -0.1963495408493621 3.048 0  -0.005410422648647092 2.843333256403111 0  -1.395368347654653 2.19075 0  1.374446785945534 0 0  0.9817477042468103 3.048 0  0.1963495408493621 0 0  -0.1963495408493621 0 0  0.5890486225480862 0 0  0.1963495408493621 3.048 0  0.9817477042468103 0 0  1.374446785945534 3.048 0  -0.5890486225480862 3.048 0  -0.5890486225480862 0 0  -0.06865319188571758 2.471928549109083 0  1.159049337209348 2.838090892449816 0  0.5817075150535711 2.596909954318943 0  0.7656515661107315 2.455866896253367 0  0.9620790410056582 2.647119292933887 0  0.3676829480103987 1.68739481709134 0  -0.8886101495223063 2.878912500124773 0  -0.3317793704126089 0.1873756770788371 0  -1.383208664444332 2.577695923010364 0  -1.043597917648523 1.648216005744782 0  -1.362178343413552 1.546177620526679 0  -1.570796326794897 1.7145 0  -0.8462722504471433 1.648434957877788 0  -0.588076822054871 0.3899352838051667 0  1.570796326794897 2.8575 0  -1.570796326794897 0.9525 0  1.570796326794897 0.1905 0  1.570796326794897 1.7145 0  1.570796326794897 0.9525 0  -1.570796326794897 1.3335 0  1.570796326794897 2.4765 0  -1.570796326794897 2.4765 0  0.8103777117362174 0.287468585434799 0  -1.145334531235929 1.881885620422454 0  -0.8620560674467429 0.6361265362229395 0  -0.321688879263093 1.207848147265888 0  -0.7798551871678058 1.904240998338365 0  -0.4724954359209014 1.769587110195458 0  -0.667402576232105 2.495985359319255 0  0.5365063314111709 0.8945566719544227 0  0.1855702280441107 2.342745654422604 0  0.55510120733165 1.88540118775351 0  1.188295809121239 2.460939894898248 0  1.38587897409014 2.260870763688798 0  1.383978812419919 1.901097375082534 0  -0.2265735189171196 1.049795314962436 0  0.7387890113368257 1.246392780742437 0  0.5763234466275948 1.516457524623135 0  -0.203279258075353 0.4348372558382012 0  -1.179202350299698 1.523245956950107 0  -1.151844216720993 2.318990544544152 0  -1.410806081599612 0.6547540757597369 0  0.04190096621848406 2.108399609871347 0  0.5925649981629265 0.4343292987553075 0  0.2371113691258682 0.4102816185532077 0  1.334103818253725 2.657728219912091 0  0.9405077369493808 2.275181409651143 0  -0.633962040105568 2.669303984283053 0  -0.6045614816381242 1.904349918307267 0  1.159697673803787 2.079238591118184 0  -0.004643801590645341 1.347662554528907 0  0.3691400131247499 2.395423267764724 0  0.3855005143298051 2.055603978165229 0  0.01839821075864462 0.1788084577298442 0  -0.9568120219060965 2.61629404172056 0  0.1783135820912846 1.871116340262054 0  0.3649950158263953 2.745288921627024 0  -0.3142054567155264 0.5671999812317062 0  -0.4933549623779417 0.564740705097546 0  0.06092775470575962 2.685867440722903 0  -0.1801827362748675 2.337517890002858 0  -1.063355415037434 0.6386189748554 0  -1.205242865599393 0.8676070232612285 0  -0.4176020549597784 2.412196127179313 0  -0.3347051678178828 2.093252344225509 0  -1.427772711006951 0.2857500000000001 0  0.8835729338221293 0.1362887052191026 0  -0.6831011505337878 0.1389086130988801 0  -1.403875662049666 1.77648180985222 0  1.394165436236593 1.362588987767805 0  -0.5007942298153729 0.8700626692351643 0  -0.6093220848169366 0.7321530406295067 0  0.007534593095922887 1.760126887057542 0  -1.276272015520854 0.140425968067263 0  -0.7270478511000733 2.847016806985676 0  1.436331331726002 0.85725 0  -0.1770320080670663 1.927167796173981 0  0.7200726153501196 0.6345534912379586 0  -1.099983122078282 0.3577316115390257 0  0.2324759135153202 2.648405702327079 0  0.9054371869972004 1.582409569434113 0  0.5000672234640285 1.188708149930449 0  -0.340793734207542
[...]
<PointData  Vectors="phi"> 
<DataArray  type="Float64"  Name="phi"  NumberOfComponents="3" format="ascii">-1.1965505055221279e+00 3.0214185755760510e+00 -5.2091636598530245e-06  -1.0160119770046498e+00 -3.5761095148031685e-08 -9.1361825621440946e-06  1.0160120505070513e+00 -3.5421422184549579e-08 -1.0963829657117336e-05  1.1963536660518741e+00 3.0214443539210611e+00 -6.8569813609999803e-07  -5.9228385456443581e-06 5.9580772114215308e-08 1.0160174537058835e+00  2.7420650792100846e-04 2.8234546845126536e+00 1.5736414995115530e-01  -1.0543185972439080e+00 1.5109495668936876e+00 -1.7714850091863619e-05  1.0543555471961525e+00 1.5109446732056879e+00 -2.5799499955157858e-05  -4.7077116463253396e-02 1.5330025161719896e+00 9.2493171319234058e-01  7.1842708809532718e-01 -2.1850896052498865e-08 7.1841688076841193e-01  7.4689067137962195e-01 2.2644996221516362e+00 6.8844590557903873e-01  -7.1842436899859485e-01 -3.7536858683283949e-07 7.1841887193505372e-01  -7.1117956430147766e-01 3.0193690329537133e+00 4.7027713000865246e-01  3.9224533335040973e-01 7.7951011851138707e-01 9.1982119050975975e-01  -1.0265268450855507e+00 7.5528625924185600e-01 -2.0685482547646460e-05  -7.8903728288392738e-01 2.0962181477040382e+00 6.8221714003407541e-01  -6.5582983775256198e-01 8.9237267998266545e-01 7.8561928413604609e-01  7.1138175488357291e-01 3.0194108762773642e+00 4.7047123579907169e-01  7.4634242724999145e-01 1.4680600837530249e+00 7.1728302301305680e-01  7.2289020911391310e-05 2.1989079690918616e+00 5.9641873975247073e-01  -1.1072953835400532e+00 2.2665704297216203e+00 -2.1460572143893031e-05  1.0265438336564279e+00 7.5528328041468684e-01 -3.0737306770746393e-05  1.1072789749264753e+00 2.2665750612284348e+00 -5.1196129563747042e-05  -8.5913242636214138e-01 1.4690240866512583e+00 6.0227664583599649e-01  8.6612093585780958e-01 8.9625688728553543e-01 5.6645831715190753e-01  -3.9000048047929170e-01 4.0923707230894402e-01 9.3114342966821328e-01  1.0030856083257047e+00 1.8933902918561794e+00 3.9074510538349738e-01  3.7286382005704893e-01 1.8865065882323926e+00 8.4621344456365333e-01  -4.6341208234054848e-01 2.5220188407576090e+00 5.8281931249330488e-01  3.6358818493109163e-01 2.9159886510556263e+00 3.0226672500621993e-01  9.3865733219739700e-01 -3.6441990224461760e-07 3.8880553903993237e-01  1.0496241913593476e+00 2.6303636506536550e+00 4.0559155213035525e-01  -1.0779276505489663e+00 3.0331790777087120e+00 3.7211299169076606e-01  -9.3865615048725715e-01 -3.8554897182812954e-07 3.8881414278553439e-01  -1.4089903745000359e-01 8.9498362182531588e-01 9.6412864415541721e-01  -1.0151514861871369e+00 2.5171621945123759e+00 4.5148361874140280e-01  -8.5311717509702978e-01 4.7187327169471127e-01 5.6652705340800302e-01  -3.4362445388853391e-01 1.9266292180731019e+00 8.3392502438124105e-01  -1.0769338829587143e+00 1.8888626823622854e+00 -2.4309234725981968e-05  -9.5357931174765442e-01 1.0240253882735542e+00 4.1126532835072599e-01  7.1096050539541233e-01 4.7583400194758729e-01 7.3443519087842934e-01  3.8881365857378619e-01 6.5990952588939842e-07 9.3866582667028164e-01  -4.8219710435678226e-01 1.3319553337613832e+00 8.6748145094443652e-01  6.4518857511332808e-02 4.5930561008676962e-01 9.9443360928131441e-01  1.9985114560442102e-01 1.1717276978955655e+00 9.3968458521506903e-01  3.7079211516388499e-01 2.4999724506109096e+00 5.4329520488875616e-01  1.0214592817376174e+00 3.7759720001274960e-01 -1.9612860311941442e-05  9.7617555845554038e-01 1.2864868096772004e+00 3.8075575470356526e-01  9.4810764509755052e-01 5.2697987752516007e-01 3.8850123514044482e-01  7.4822142284949344e-01 1.8663462142259735e+00 7.1709904213532449e-01  6.1755857744915410e-01 1.0974114281793741e+00 8.0994594184974822e-01  -1.0293972262694933e+00 2.1308714312498798e+00 3.6810860926184991e-01  -3.8880227557469249e-01 -8.8007917805676027e-08 9.3865757392818039e-01  -3.6320410817657334e-01 2.9160050300448592e+00 3.0221756799698396e-01  1.0781882672575442e+00 3.0331229318045958e+00 3.7230644138258046e-01  7.2757127808011757e-01 2.6424797611545539e+00 6.0046682903562798e-01  -1.0127867696525006e+00 1.7027176861404349e+00 3.3424872588562810e-01  -1.0928497853395136e-01 2.5230940775969048e+00 3.9458976378357496e-01  -1.0373367714549895e+00 1.1330824792931828e+00 -2.5751417558645444e-05  -1.0214627011167456e+00 3.7759870387646932e-01 -2.4714124259912162e-05  1.0373699459884274e+00 1.1330774729828090e+00 -1.0984200977296761e-05  1.0769516111355868e+00 1.8888586761314936e+00 -5.0207871924767551e-05  1.1499344221381522e+00 2.6437147443517519e+00 -2.5218965560973957e-05  -1.1500127299713656e+00 2.6437091094568483e+00 -1.8686281838564470e-05  -6.6558909689508372e-01 1.7463046604785892e+00 7.7204931019820833e-01  1.0399703741933892e+00 2.2613693191293502e+00 3.6927687389789260e-01  3.9792103298785170e-01 1.5031986473463146e+00 8.8524027626633295e-01  1.5501909908039393e-02 1.9141029333677302e+00 8.1118133784506452e-01  4.1180976824337079e-01 4.2458611686522074e-01 9.2245336359264030e-01  3.3299382079016093e-01 2.1944660410959429e+00 6.9801687799666678e-01  -3.3017106494271165e-01 2.2258393262340772e+00 6.7748511411580681e-01  -9.7165225461461768e-01 6.9474704138212184e-01 3.3491391159894401e-01  -1.0036038154992171e+00 1.3501022392288453e+00 3.0708351788004018e-01  -1.2428552331455263e-01 1.2188957563827651e+00 9.4345100482769906e-01  9.9565185156806357e-01 9.8412560607519717e-01 2.8342246604736104e-01  -7.3650824675392823e-01 1.1972253069012311e+00 7.2383007105422048e-01  8.6090151142171800e-01 2.6456655860640571e-01 5.4717127793445908e-01  1.9269409484887284e-01 2.6589756776074940e+00 3.4311365701267321e-01  -7.6267917524583406e-01 2.6967091665349785e+00 5.8212614951927322e-01  -3.5355994152072850e-01 1.6182055187263094e+00 8.8867225058164978e-01  9.4146759874600117e-01 1.5900492375480046e+00 4.8520088283856244e-01  -8.0354974520369171e-01 2.3997577457274484e+00 6.4082817379608070e-01  6.6504520196127093e-01 7.9766970378013113e-01 7.7825916481284085e-01  -9.7148367433134930e-01 3.0828750009587225e-01 3.1372719965612050e-01  -6.4091418470468708e-01 5.6890454078165975e-01 7.9447552631485641e-01  -3.9845035686063585e-01 7.2191248906004868e-01 9.1976620459402225e-01  8.3410173756361095e-01 1.1839581183893819e+00 6.2296941923918780e-01  -8.5239169101084555e-01 8.0599534630714431e-01 5.8222205793348847e-01  -7.0113032942918252e-01 2.8934264106777496e-01 7.3975325738146536e-01  -8.8868330041541410e-01 1.8295906612422117e+00 5.8115064644240522e-01  -1.4720899049515382e-01 2.5483327081499824e-01 9.9624510321131321e-01  1.9791982847006515e-01 2.0626600859345254e-01 9.9016709159411553e-01  5.9573319677859360e-01 2.3207118147239625e-01 8.2420001493139461e-01  -4.1039214539403224e-01 1.0350236009007512e+00 9.0393181615043694e-01  9.1389789658726217e-01 2.4484920896923543e+00 5.6472203382668862e-01  9.0651740673596004e-01 2.8341116541279869e+00 5.1500185166956791e-01  5.3019993583295055e-01 2.9742965772168430e+00 3.9812942007429991e-01  1.6788945198265118e-01 1.7064433648429811e+00 8.9919693370993747e-01  5.6438255678969196e-01 2.0756708403183906e+00 7.7828932310035925e-01  1.0471888715263518e+00 1.7008654664819192e+00 1.9911585980738569e-01  9.1948669891237012e-01 2.0962734687666029e+00 5.5808134510227636e-01  -1.1705961684661967e+00 3.0243943364052046e+00 1.9733382998606283e-01  -1.1169816635979788e+00 2.7433334592615144e+00 2.8189378657487535e-01  1.1436059688637417e+00 2.8137429138140333e+00 2.1897758299614142e-01  9.8371126499619488e-01 2.6283109643763375e-01 2.7035523119153254e-01  1.4120733106804370e-01 8.9839924471671961e-01 9.6385862089428953e-01  -5.1615777225924042e-01 2.7749861372264428e+00 4.8642052653099477e-01  1.1095825349178217e+00 2.4633477903490344e+00 2.0035474263034642e-01  -1.5098874454751390e-01 6.2451690530655002e-01 9.7877053045188767e-01  -1.0879095213703567e+00 2.3608879306563466e+00 2.4965576148034738e-01  5.6209681387915433e-01 1.7053154169704350e+00 8.2337076577113133e-01  1.0907783344965456e+00 2.0777753003423758e+00 -2.2634013539443892e-05  4.9771934601448886e-01 2.7300991061646482e+00 4.9840791123157818e-01  -8.4477493487412147e-01 -5.5575908733103268e-08 5.6446245147796525e-01  -5.6724753829546803e-01 2.3218524396375932e+00 7.0238109940566695e-01  1.2312372063567180e-01 2.4071953846765086e+00 4.7370691454642999e-01  -9.0896684749862644e-01 3.0380733138278044e+00 4.7364831990968492e-01  -5.5016680111034566e-01 2.0761315855197418e+00 7.8024978779195053e-01  -1.0113417755340368e+00 8.9996479730895396e-01 2.0242140151808113e-01  -9.1128478031662186e-01 1.2443656969170873e+00 5.1392929818180311e-01  -1.6526259532757714e-01 2.0544418910942470e+00 7.2824525810665663e-01  -9.7875427875121668e-01 2.7567518219798890e+00 4.8390062920608323e-01  -1.6379996761601862e-01 1.7689563700567381e+00 8.8489853119756412e-01  -2.9812268306671547e-01 2.6898190270102367e+00 3.8787318523963921e-01  5.1990899794532353e-01 2.3572131392460709e+00 6.8123615012505501e-01  -6.8204618707510511e-01 1.4287819187966819e+00 7.6532382618524408e-01  8.1112039082660448e-01 6.7109873672080156e-01 6.3194355611361308e-01  -8.5168616601512315e-01 2.3588458629277295e-01 5.6035612668418089e-01  9.9596207272406656e-01 7.3523753521666446e-01 2.5372457056498376e-01  5.4400006774099663e-01 6.1029544440922068e-01 8.5739468936889118e-01  5.6995368893470943e-01 1.3367351688680342e+00 8.3076986745032810e-01  -5.1302667503460575e-01 2.0401096310662287e-01 8.7639057208744209e-01  -2.6047255355148341e-01 2.4027981278165975e+00 5.3499758416681609e-01  -1.0233570389425972e+00 5.6642354059364786e-01 -1.5195794091028510e-05  -2.4679336984727876e-01 1.4142688818364970e+00 9.1844342977608850e-01  2.5525033471679293e-01 5.9354411477970470e-01 9.6356955739978045e-01  1.0156196636687886e+00 1.4925362852151378e+00 2.8858124107334765e-01  1.0450932974135565e+00 1.3220040502626615e+00 -1.4810855995915948e-05  -9.2947211036292543e-01 2.2296873301509366e+00 5.5220741346240343e-01  8.8612615644271164e-01 1.3901786637722484e+00 5.6224636826013774e-01  -9.9647471915601760e-01 -6.3328124635435537e-07 1.9820669200082577e-01  3.9899292412841153e-01 1.0268260207334123e+00 9.0775158565463909e-01  1.6989325481228698e-01 1.4143619599066362e+00 9.2681807255713922e-01  -1.0522384035344570e+00 1.9239443247731265e+00 2.4268399904345564e-01  2.1015856259510826e-01 2.0189178720830268e+00 7.6599576264948344e-01  1.0233663898570111e+00 5.6642049302996600e-01 -2.6992296304589983e-05  1.0637519826836628e+00 2.0655790248437196e+00 2.3821232061786515e-01  -8.3937462488189951e-01 1.0295808927392638e+00 6.1017704400642581e-01  -1.0146886264130668e+00 1.1415027404464486e+00 2.2691747051093389e-01  -1.0189869079570371e+00 1.8882471246463489e-01 -3.3321972243926041e-05  9.3534778827397269e-01 1.0931122510207072e+00 4.5756323072852645e-01  4.0889024762533077e-01 2.1177852299571903e-01 9.2730442732656515e-01  -1.0907489751642834e+00 2.0777801695905560e+00 -3.1520793220850437e-05  8.4997524513137268e-01 4.7305613594868989e-01 5.7127233278226841e-01  1.0035317301225783e+00 4.5655972315239496e-01 1.9611842424111986e-01  9.2351009231180836e-01 7.2508367183314115e-01 4.5571060997158969e-01  3.7247251603436993e-01 1.2929535024181222e+00 9.0187170737287115e-01  8.9899693752745513e-01 1.7943936974699610e+00 5.6562695233651883e-01  -1.7348571654233361e-03 1.0505987776603438e+00 9.5974903922679811e-01  1.0200178491593090e+00 1.1760574202404965e+00 2.0680278641258687e-01  -1.0052076712746023e+00 4.7216308486262670e-01 1.8817885051302544e-01  5.9181316855099281e-02 6.9410826937489412e-01 9.8202975590222463e-01  -9.4876558098267882e-01 4.9605770671866095e-01 3.8528896921261313e-01  -5.9483006435266095e-01 1.0840585674178005e+00 8.2343583793959918e-01  -9.3953834796180258e-01 2.0238847560888522e+00 5.2521132627442901e-01  -1.1735659861830041e+00 2.8324124366689580e+00 -2.1784473169026665e-05  7.6198611647295944e-01 1.0103848607517794e+00 6.9735692657437331e-01  7.0762964493028335e-01 2.8306036377567292e+00 5.3566562521635452e-01  -5.2571551616198897e-01 1.5258229273655164e+00 8.4429507403154358e-01  7.5159751242811512e-01 2.0657911101042781e+00 7.0846253924148905e-01  7.3469091518836949e-01 1.6670212740017942e+00 7.2715120636979591e-01  -1.9208230263850276e-01 2.8591973923680456e+00 2.1194933503039112e-01  -5.3043715755899433e-03 2.6640035484546689e+00 2.8721248785364034e-01  -1.0845078574578628e+00 2.1732584511766229e+00 1.7775936783219717e-01  9.9647572054985489e-01 -7.4354000475573297e-07 1.9820965320381276e-01  9.0924509058495684e-01 3.0380966775972085e+00 4.7402621558427271e-01  1.9820861212370233e-01 1.4782910187023097e-06 9.9649035175380940e-01  -1.9821677941489432e-01 6.1854896025289357e-07 9.9648205914998766e-01  5.6445632746496655e-01 1.4530863968305521e-07 8.4477717985615730e-01  1.9250907565830083e-01 2.8591488121098565e+00 2.1191320197515470e-01  8.4477805897023572e-01 -7.1695135083834114e-08 5.6446196970560691e-01  1.1705607284035355e+00 3.0244000887920044e+00 1.9735686319227619e-01  -5.2986827585626883e-01 2.9742240875219106e+00 3.9791580678179961e-01  -5.6446245801788497e-01 1.6612519452087269e-08 8.4476938456819384e-01  -6.9334455771314377e-02 2.3557780851881240e+00 4.9494693405745444e-01  1.0601603340736525e+00 2.8243017983917569e+00 3.9608040591523913e-01  5.4617513313866961e-01 2.5697888099974455e+00 5.9684753632728194e-01  7.3982499352396858e-01 2.4554559310016311e+00 6.5126606558311939e-01  9.1349772697370291e-01 2.6424461487054494e+00 5.4439597591515776e-01  3.7354580361714529e-01 1.6953987758651523e+00 8.7861287299565405e-01  -8.2887200491467161e-01 2.8697858345675678e+00 5.2637552267256948e-01  -3.3089925940080356e-01 1.8888605191384977e-01 9.5686226673815766e-01  -1.1220968703343732e+00 2.5569949208150202e+00 1.8993860085448530e-01  -9.2771441599602922e-01 1.6408091770177060e+00 5.1275430254640220e-01  -1.0356771762849410e+00 1.5338827520289278e+00 2.1112773291354719e-01  -1.0649495347564772e+00 1.6999050066804944e+00 -3.4757209509051085e-05  -8.0309064044756040e-01 1.6464917846895379e+00 6.6896276883276262e-01  -5.6733552357826900e-01 3.9094321031043477e-01 8.4394981812475223e-01  1.1734653386707321e+00 2.8324211758401048e+00 -2.2688131692897212e-05  -1.0311930818087633e+00 9.4417383949849798e-01 -1.7479212886006491e-05  1.0189771505382599e+00 1.8882382345724935e-01 -2.9352273992877214e-05  1.0649778319249550e+00 1.6999002524905673e+00 -2.0563385836001823e-05  1.0312167918211945e+00 9.4416957298078219e-01 -4.9314428537314110e-05  -1.0450568830440512e+00 1.3220086647807465e+00 -3.1957974175373723e-05  1.1272388533437414e+00 2.4551900056095417e+00 -1.6408246865349509e-05  -1.1272432484543529e+00 2.4551890741507583e+00 -1.7745334975278056e-05  7.4008269008037464e-01 2.8679959366645191e-01 7.0144645088012281e-01  -9.8855380797710390e-01 1.8711624954315420e+00 4.2068525496416315e-01  -7.8349526901540001e-01 6.3428071232421690e-01 6.6374354887994347e-01  -3.2466428765401745e-01 1.2154070401516215e+00 9.1694199953394651e-01  -7.6086155950114653e-01 1.9050624867879851e+00 7.0768898984351902e-01  -4.7775978608413999e-01 1.7767849358240921e+00 8.4745012354281612e-01  -6.3795231610181247e-01 2.4885460536013215e+00 6.4880112444477944e-01  5.2853468243290491e-01 8.9796065728330254e-01 8.6156973574347451e-01  1.8484889767481083e-01 2.2634892991716202e+00 5.8948028986357093e-01  5.5799994020352328e-01 1.8917017706085173e+00 8.1179895419321235e-01  1.0515462617975824e+00 2.4464210216876867e+00 3.7916465326988735e-01  1.0892506803120434e+00 2.2429147463652872e+00 1.8727335016886629e-01  1.0605318206116536e+00 1.8859928327428224e+00 1.8919467249641686e-01  -2.2914541650406223e-01 1.0576310049850997e+00 9.4326992868340498e-01  7.0912747564109357e-01 1.2466554566986894e+00 7.4642992893130622e-01  5.7341475054538282e-01 1.5211450584037731e+00 8.2418128273719271e-01  -2.0489788509133164e-01 4.3902444187598366e-01 9.7973034344286447e-01  -9.8287669774871167e-01 1.5134794601040653e+00 3.8972361255250637e-01  -1.0238251647616108e+00 2.3062951582902791e+00 4.1365374845710035e-01  -1.0122010547194682e+00 6.4912902089761615e-01 1.6227643184780874e-01  4.2288044380082379e-02 2.0575118228720628e+00 7.0292748367957769e-01  5.7184117402441759e-01 4.3542161718522948e-01 8.4121516112269612e-01  2.3854215450412999e-01 4.1409547950706838e-01 9.7429689576266920e-01  1.1200826667221169e+00 2.6374601742634249e+00 2.3853715244681403e-01  8.9664336639039166e-01 2.2712185301041989e+00 5.8795406321245969e-01  -5.9166106755422676e-01 2.6446614115191962e+00 5.7967038522213166e-01  -6.0534243431353163e-01 1.9099307869534448e+00 7.9330603720429016e-01  1.0080917518666814e+00 2.0672543482552719e+00 4.0709289307082330e-01  -4.7427169553084627e-03 1.3568874073674821e+00 9.3788765400698693e-01  3.5610721927117467e-01 2.3468212271430895e+00 6.2111089456639257e-01  3.8290893619214850e-01 2.0517055509982591e+00 7.8712723065866053e-01  1.8643445120153382e-02 1.8084354861351207e-01 1.0092372340700826e+00  -9.0978677800843499e-01 2.6119182178728271e+00 5.5078107737073911e-01  1.7986375302156019e-01 1.8702025856867519e+00 8.4765404436951353e-01  3.4455660238243208e-01 2.6475759229729028e+00 4.4336939591536639e-01  -3.1494280699885036e-01 5.7169709472947983e-01 9.5032314025890052e-01  -4.8536901121288117e-01 5.6740551692056829e-01 8.8811517154294461e-01  6.1728427441083443e-02 2.5343435319007797e+00 3.7683480623830001e-01  -1.7960455545030987e-01 2.2579413084027009e+00 5.9047022960314244e-01  -9.0013605822504428e-01 6.3479753853537080e-01 4.9597424662295542e-01  -9.6602492105182070e-01 8.6131912138390332e-01 3.6492389175920692e-01  -4.0054255442088410e-01 2.3717698924855917e+00 6.2895384681564981e-01  -3.3117570770920901e-01 2.0793828954078264e+00 7.6199785100825768e-01  -1.0100929552302431e+00 2.8326088529214921e-01 1.4521991457209776e-01  7.8681024819486312e-01 1.3578600595416626e-01 6.4505340031010761e-01  -6.4234857210973195e-01 1.3893725886530461e-01 7.8815419822381139e-01  -1.0558629416812844e+00 1.7621176937618892e+00 1.6925833638882123e-01  1.0323377995485603e+00 1.3514084165385698e+00 1.7907739290054417e-01  -4.9540528981008136e-01 8.7394177894262137e-01 8.7753937915662727e-01  -5.9088916633927646e-01 7.3386350341489981e-01 8.2914643903289220e-01  7.6427581444545737e-03 1.7646602560709186e+00 8.8652118246181855e-01  -9.7414277043062714e-01 1.3931402367744866e-01 2.9529664785559795e-01  -6.6962805949028459e-01 2.8230154801557061e+00 5.3001980023339945e-01  1.0202321136830286e+00 8.4989302550179813e-01 1.3656988258956956e-01  -1.7785893621338592e-01 1.9195943190642744e+00 8.2147494144101463e-01  6.8025861658783160e-01 6.3449470993716339e-01 7.6432021261323502e-01  -9.1122870497573294e-01 3.5535749356500157e-01 4.6227952264943895e-01  2.2761484703576104e-01 2.5304552116218639e+00 4.3947674632303024e-01  8.4224852129959937e-01 1.5787386397754000e+00 6.2631873686783224e-01  4.9794060602854556e-01 1.1937588695465713e+00 8.6669045894267449e-01  -3.2525609566084490e-01 2.5520924719117879e+00 4.8439551774868511e-01  8.5213995939919762e-01 1.9622331593073925e+00 6.2882367599442290e-01  9.7590793033753698e-01 1.7392148716683515e+00 4.3182560139056941e-01  -7.4158509060703448e-01 4.5617745728771181e-01 7.0403872647547250e-01  2.1223281721870474e-01 7.5120101806622286e-01 9.6373556432225349e-01  -6.6232279766404190e-01 2.1900046106516626e+00 7.3149202245015643e-01  -6.0852757647283895e-01 1.2451659344693882e+00 8.1296164626556178e-01  -7.2515093930816299e-01 1.0330194954038281e+00 7.3181891331159765e-01  -7.8874991013881757e-01 1.3434210401507436e+00 6.7751170356255364e-01  9.4270269042522714e-01 9.3671131441270650e-01 4.2925576051695058e-01  -9.7232001769399234e-01 1.1789900308639243e+00 3.7909592682173482e-01  8.9747989099356340e-01 1.2506638724101529e-01 4.7938154247501080e-01  9.1621864174029011e-01 3.8382552906930989e-01 4.5342689219902454e-01  -6.6013578030031472e-01 1.5864752311457186e+00 7.7753964574379675e-01  9.6196308585860280e-01 1.4431103828927963e+00 4.3136728706832705e-01  -9.4916419073672953e-01 2.3903933711876