<?xml version="1.0"?>
<VTKFile type="UnstructuredGrid"  version="0.1"  >
<UnstructuredGrid>
<Piece  NumberOfPoints="758" NumberOfCells="1386">
<Points>
<DataArray  type="Float64"  NumberOfComponents="3"  format="ascii">-1.570796326794897 3.048 0  -1.570796326794897 0 0  1.570796326794897 0 0  1.570796326794897 3.048 0  0 0 0  0 3.048 0  -1.570796326794897 1.524 0  1.570796326794897 1.524 0  -0.04609926118424437 1.524 0  0.7853981633974483 0 0  0.7623485328053261 2.262242601661362 0  -0.7853981633974483 0 0  -0.7853981633974483 3.048 0  0.392699081698724 0.7745759241961347 0  -1.570796326794897 0.762 0  -0.8084477939895706 2.0955 0  -0.68277245543452 0.8915343570675713 0  0.7853981633974483 3.048 0  0.778743707341909 1.468410948960538 0  2.780093748954961e-16 2.285302774973185 0  -1.570796326794897 2.286 0  1.570796326794897 0.762 0  1.570796326794897 2.286 0  -0.9375370967763674 1.47348297960658 0  0.9831575747762593 0.9003629142671278 0  -0.3926990816987241 0.4064697549061488 0  1.177419588818055 1.905 0  0.3692901340097942 1.880893989147954 0  -0.4920225169641509 2.564371687128368 0  0.3926990816987241 3.048 0  1.178097245096172 0 0  1.155705348811136 2.643920532523289 0  -1.178097245096172 3.048 0  -1.178097245096172 0 0  -0.1391296372266528 0.8873724190154949 0  -1.10527745318919 2.528282743051346 0  -0.9817477042468103 0.4742759268549471 0  -0.3416666987802651 1.923944646262223 0  -1.570796326794897 1.905 0  -1.156555306160469 1.030861936336814 0  0.7648449098493205 0.4764142032227 0  0.3926990816987241 0 0  -0.4820376416180818 1.326151321396512 0  0.06374421723344185 0.4545169930886408 0  0.1972735722393064 1.163324878565267 0  0.3900417218314142 2.566922767651637 0  1.570796326794897 0.381 0  1.188877612935585 1.295195418509834 0  1.179914028402171 0.5308585702661928 0  0.7660075594126428 1.865233039449035 0  0.6330293131838399 1.095171663968746 0  -1.201232463242587 2.144287146570887 0  -0.3926990816987241 0 0  -0.3926990816987241 3.048 0  1.178097245096172 3.048 0  0.7684409382397209 2.649499271873753 0  -1.236954997304436 1.7145 0  -0.1088573452899617 2.666651387486592 0  -1.570796326794897 1.143 0  -1.570796326794897 0.381 0  1.570796326794897 1.143 0  1.570796326794897 1.905 0  1.570796326794897 2.667 0  -1.570796326794897 2.667 0  -0.6730839067294777 1.743003792473746 0  1.199831389396789 2.275437921225198 0  0.3936837537618041 1.495643752599615 0  0.01539369169800942 1.928544709491661 0  0.4156551272669651 0.4219033286010089 0  0.3401546043708642 2.225103550856524 0  -0.3379897306391274 2.262671266279809 0  -1.23624174049596 0.7000907110925838 0  -1.265224057170889 1.360131453617764 0  -0.1224339018241312 1.210043725539656 0  1.289286200625578 0.9918698881707442 0  -0.7751142346211329 1.197848666814478 0  1.003546186550495 0.2660297686099683 0  0.1963495408493621 2.808538634159524 0  -0.8079023568959116 2.703551618159924 0  -0.3480226984353056 1.610059855391589 0  1.075147893506229 1.598068412087719 0  -0.8290627893979112 2.399544545867518 0  0.6965048925255637 0.7972100472372819 0  -1.257765094876752 0.3107645483825858 0  -0.6724835324263325 0.5684215760013651 0  -0.3995059642389676 0.7173610149075536 0  0.9136951972244611 1.187564504803626 0  -0.964259350608907 0.8095514380783081 0  -0.7565990314517038 0.2897049735129544 0  -0.9603859887840651 1.834914433810327 0  -0.1457055965762301 0.2521630699436873 0  0.1963495408493621 0.2041911848053476 0  0.6241974196550791 0.231695999252114 0  -0.4098815011312292 1.029160072548571 0  0.9592800715482012 2.452820690856482 0  0.9648684169153161 2.840751931000357 0  0.5890486225480862 3.048 0  0.164631037784102 1.698913854044779 0  0.5664480837073581 2.070920238540226 0  1.374107957806476 1.7145 0  0.9861079629544779 2.102471438422718 0  -1.374446785945534 3.048 0  -1.288827800789186 2.762781313597598 0  1.353232957571468 2.835634774483438 0  1.302158670506274 0.2650078124691045 0  0.1394669809465775 0.8907702620243092 0  -0.5631487221059602 2.830992231257464 0  1.372837635547072 2.483038902756259 0  -0.1493395228831287 0.618617259260858 0  -1.32327048447753 2.378769394323546 0  0.56080204725298 1.699622905297025 0  1.570796326794897 2.0955 0  0.5403456747786348 2.786446773498672 0  -0.9817477042468103 0 0  -0.5847039960246873 2.326882432521036 0  0.1225428891326576 2.526494255738436 0  -0.9817477042468103 3.048 0  -0.5522901559753841 2.071668786267058 0  -1.370864794258017 0.9075071715671403 0  -1.043891045637083 1.250611220450313 0  -0.1652643923634778 2.09141301924679 0  -1.044446740946883 2.764982067459552 0  -0.1610370079820225 1.763280243096074 0  -0.3136912237752232 2.810498886211121 0  0.5400974078002052 2.370472734822523 0  -0.7009161718414544 1.427243880175582 0  0.902907438200502 0.6735032943420574 0  -0.9879196222361604 0.2371379634274736 0  1.319268546233604 0.7412771512308228 0  0.5578373583610097 0.608241627784878 0  0.5756483102040615 1.332636919938113 0  -0.5281701577409 0.2032348774530744 0  -0.266729509930448 2.489223923247521 0  -1.570796326794897 0.5715 0  -0.2430656531629531 1.405631921096758 0  0.253622337931223 0.5884397663452474 0  1.284044721043478 1.50372037617638 0  1.570796326794897 1.3335 0  -0.9904333867980613 2.235882060371517 0  0.9871146764618406 1.395690276854986 0  -1.374446785945534 0 0  0.3981951765262902 1.020833864419675 0  0.1670583512016766 1.405384478716078 0  -1.330327693484763 1.938638984813805 0  0.2106653067452682 2.040805097078886 0  1.570796326794897 0.5715 0  1.334822181490566 2.081373939821734 0  -0.9303227889097604 1.033236710715967 0  -1.34639228476592 1.150776798768373 0  -1.570796326794897 0.1905 0  1.106697207481837 1.099709897393925 0  0.4137866939027022 0.2104288000383385 0  -1.570796326794897 2.0955 0  0.9761377489246634 0.4754251272674608 0  1.377108465632662 0.4605024587280874 0  1.108114944719677 0.7297638044096917 0  0.3695908229138113 1.285681859811955 0  0.9799112840676307 1.800306505551499 0  -0.001696842075803034 1.042028929293442 0  1.366537356420357 1.185723700290463 0  -1.385029840108318 0.47625 0  0.05842649915411911 0.6874537157920781 0  -1.183268988745763 0.4997334438341218 0  -0.6073502281622543 1.081347079085406 0  -1.026941765261019 2.031536576622642 0  -1.570796326794897 2.8575 0  0.8159726599830506 1.011928543199529 0  0.7652782693277244 2.849245002237192 0  -0.5252326280373281 1.520125074885265 0  0.7648326174724897 2.063743853392348 0  0.757099741434616 1.666331708950521 0  -0.1963495408493621 3.048 0  -0.005410422648647092 2.843333256403111 0  -1.395368347654653 2.19075 0  1.374446785945534 0 0  0.9817477042468103 3.048 0  0.1963495408493621 0 0  -0.1963495408493621 0 0  0.5890486225480862 0 0  0.1963495408493621 3.048 0  0.9817477042468103 0 0  1.374446785945534 3.048 0  -0.5890486225480862 3.048 0  -0.5890486225480862 0 0  -0.06865319188571758 2.471928549109083 0  1.159049337209348 2.838090892449816 0  0.5817075150535711 2.596909954318943 0  0.7656515661107315 2.455866896253367 0  0.9620790410056582 2.647119292933887 0  0.3676829480103987 1.68739481709134 0  -0.8886101495223063 2.878912500124773 0  -0.3317793704126089 0.1873756770788371 0  -1.383208664444332 2.577695923010364 0  -1.043597917648523 1.648216005744782 0  -1.362178343413552 1.546177620526679 0  -1.570796326794897 1.7145 0  -0.8462722504471433 1.648434957877788 0  -0.588076822054871 0.3899352838051667 0  1.570796326794897 2.8575 0  -1.570796326794897 0.9525 0  1.570796326794897 0.1905 0  1.570796326794897 1.7145 0  1.570796326794897 0.9525 0  -1.570796326794897 1.3335 0  1.570796326794897 2.4765 0  -1.570796326794897 2.4765 0  0.8103777117362174 0.287468585434799 0  -1.145334531235929 1.881885620422454 0  -0.8620560674467429 0.6361265362229395 0  -0.321688879263093 1.207848147265888 0  -0.7798551871678058 1.904240998338365 0  -0.4724954359209014 1.769587110195458 0  -0.667402576232105 2.495985359319255 0  0.5365063314111709 0.8945566719544227 0  0.1855702280441107 2.342745654422604 0  0.55510120733165 1.88540118775351 0  1.188295809121239 2.460939894898248 0  1.38587897409014 2.260870763688798 0  1.383978812419919 1.901097375082534 0  -0.2265735189171196 1.049795314962436 0  0.7387890113368257 1.246392780742437 0  0.5763234466275948 1.516457524623135 0  -0.203279258075353 0.4348372558382012 0  -1.179202350299698 1.523245956950107 0  -1.151844216720993 2.318990544544152 0  -1.410806081599612 0.6547540757597369 0  0.04190096621848406 2.108399609871347 0  0.5925649981629265 0.4343292987553075 0  0.2371113691258682 0.4102816185532077 0  1.334103818253725 2.657728219912091 0  0.9405077369493808 2.275181409651143 0  -0.633962040105568 2.669303984283053 0  -0.6045614816381242 1.904349918307267 0  1.159697673803787 2.079238591118184 0  -0.004643801590645341 1.347662554528907 0  0.3691400131247499 2.395423267764724 0  0.3855005143298051 2.055603978165229 0  0.01839821075864462 0.1788084577298442 0  -0.9568120219060965 2.61629404172056 0  0.1783135820912846 1.871116340262054 0  0.3649950158263953 2.745288921627024 0  -0.3142054567155264 0.5671999812317062 0  -0.4933549623779417 0.564740705097546 0  0.06092775470575962 2.685867440722903 0  -0.1801827362748675 2.337517890002858 0  -1.063355415037434 0.6386189748554 0  -1.205242865599393 0.8676070232612285 0  -0.4176020549597784 2.412196127179313 0  -0.3347051678178828 2.093252344225509 0  -1.427772711006951 0.2857500000000001 0  0.8835729338221293 0.1362887052191026 0  -0.6831011505337878 0.1389086130988801 0  -1.403875662049666 1.77648180985222 0  1.394165436236593 1.362588987767805 0  -0.5007942298153729 0.8700626692351643 0  -0.6093220848169366 0.7321530406295067 0  0.007534593095922887 1.760126887057542 0  -1.276272015520854 0.140425968067263 0  -0.7270478511000733 2.847016806985676 0  1.436331331726002 0.85725 0  -0.1770320080670663 1.927167796173981 0  0.7200726153501196 0.6345534912379586 0  -1.099983122078282 0.3577316115390257 0  0.2324759135153202 2.648405702327079 0  0.9054371869972004 1.582409569434113 0  0.5000672234640285 1.188708149930449 0  -0.340793734207542
[...]
<PointData  Vectors="phi"> 
<DataArray  type="Float64"  Name="phi"  NumberOfComponents="3" format="ascii">-1.2661939312329276e+00 3.0188112150443307e+00 2.8455010988801124e-04  -1.0160122614011922e+00 5.1688382238595598e-08 -9.2091975576028513e-06  1.0160123079424050e+00 2.4950773460529726e-08 -1.1022416835396600e-05  1.2663868503968845e+00 3.0187612655390628e+00 2.2578331814194840e-04  -5.8171164294692401e-06 2.8681051020253210e-07 1.0160217681662216e+00  -6.1515836368506382e-04 2.5653306435284788e+00 -3.8561033877424483e-01  -1.0624222053324188e+00 1.5092969913873830e+00 -1.6907034271046290e-05  1.0626777290539053e+00 1.5092444455022267e+00 -2.5066565541993160e-05  -4.6868681842751808e-02 1.3948449740197155e+00 5.9442684176569227e-01  7.1842699973962676e-01 -2.0592015624395697e-07 7.1841666064558096e-01  6.4845762215038227e-01 2.2086669837327442e+00 4.3196849366379753e-01  -7.1842423509110720e-01 -2.3008924794626324e-07 7.1841871555373982e-01  -6.1827324147263385e-01 2.8720079943588850e+00 1.2307101933963813e-02  3.9557795030015686e-01 7.7933547491981470e-01 9.1932687932558188e-01  -1.0239328620044890e+00 7.5514488821386705e-01 -2.1541360309676273e-05  -7.1243711576550806e-01 2.0723775149966630e+00 5.1885153085823366e-01  -6.6190704652760679e-01 8.9348032889839213e-01 7.8850902336408268e-01  6.1794267575214834e-01 2.8714881263834759e+00 1.0866408876918223e-02  7.4883339028507734e-01 1.4717302552218676e+00 7.0313283793266235e-01  -4.4311154182284282e-04 1.9846452266018508e+00 1.1096791229542464e-01  -1.1795317662101130e+00 2.2592436621468068e+00 6.3916560309100718e-06  1.0239601874646229e+00 7.5512895438766292e-01 -3.0588606096156749e-05  1.1800244467928871e+00 2.2591426623515356e+00 -5.7777738410848633e-05  -8.7412668830884377e-01 1.4719931472555792e+00 6.0274950211784717e-01  8.7137357748561795e-01 8.9681212200184091e-01 5.6889673786452333e-01  -3.9147873988228316e-01 4.0915927833802618e-01 9.3018504951209779e-01  1.0340065310523483e+00 1.8935427084599874e+00 3.8748124513894822e-01  3.4066270028201723e-01 1.7542710752108919e+00 4.7099947825582716e-01  -4.2142482620058097e-01 2.3517086937219114e+00 1.2748088453816217e-01  3.4021951703528319e-01 2.6958168481741080e+00 -2.1864333476946399e-01  9.3865713636504944e-01 -4.4685499862240297e-07 3.8880525137892474e-01  9.8647322412458038e-01 2.6232982689751445e+00 3.0569310361849422e-01  -9.5711043168420440e-01 3.0036045873537423e+00 1.7302965304112297e-01  -9.3865702177367549e-01 -2.3078361146630951e-07 3.8881447887355808e-01  -1.4236164049720881e-01 8.9203229295775088e-01 9.5812081654489256e-01  -9.5174069741604794e-01 2.5101426988310203e+00 3.4986223335555455e-01  -8.5562645568647377e-01 4.7190465650176550e-01 5.6805686191758065e-01  -3.1799422318371018e-01 1.7780707066188368e+00 4.3220773352547576e-01  -1.1170871109770568e+00 1.8839426877095049e+00 -2.4401603126315006e-05  -9.5757030754501971e-01 1.0241578273701002e+00 4.1271612466360547e-01  7.1433132740531791e-01 4.7595655550037547e-01 7.3651891233213806e-01  3.8881367363248864e-01 9.4283572936921627e-07 9.3866790304878978e-01  -4.7108396517891621e-01 1.3238914378620268e+00 8.1011307229347562e-01  6.4640153104691206e-02 4.5866753656206982e-01 9.8831126795166369e-01  1.9632943672791109e-01 1.1474315244608524e+00 8.5875751482467544e-01  3.4691489887704480e-01 2.3091815531590933e+00 6.7706146889913596e-02  1.0200712149553739e+00 3.7762374547610944e-01 -1.9571400952621649e-05  9.8539211933034021e-01 1.2864012514026724e+00 3.8254579919480619e-01  9.4899717951242613e-01 5.2697119958108929e-01 3.8923933830616264e-01  6.9895778614485216e-01 1.8549076363793979e+00 6.0582837762328778e-01  6.2503067448100824e-01 1.0993664012183701e+00 8.1149354511149518e-01  -1.0558104932162837e+00 2.1313097114953305e+00 3.5565222687393655e-01  -3.8880190712274498e-01 -2.9669410709462265e-07 9.3865673349438949e-01  -3.4110989069304271e-01 2.6961981705328935e+00 -2.1776201791916089e-01  9.5674593036996958e-01 3.0032623052016199e+00 1.7177665710366777e-01  6.2282251271695177e-01 2.5375020634433163e+00 2.2876216380599776e-01  -1.0409756203893736e+00 1.7014724267730243e+00 3.3557703618689427e-01  -1.0931594644195881e-01 2.2937379013299752e+00 -1.1339125909375565e-01  -1.0349963776633877e+00 1.1325545726359227e+00 -2.4574169824646633e-05  -1.0200794452523489e+00 3.7763122534576604e-01 -2.4491483511667712e-05  1.0350717936324172e+00 1.1325271440915379e+00 -1.2066632588959359e-05  1.1175691084445087e+00 1.8838382646350089e+00 -4.7929708453877609e-05  1.2321677590760285e+00 2.6378315688150016e+00 -5.6848607568661623e-05  -1.2314464305285064e+00 2.6379559331491267e+00 1.4722371953289736e-05  -6.2077770909817664e-01 1.7296986795803109e+00 6.5140662227826907e-01  1.0544017227421407e+00 2.2622110685454522e+00 3.4633742466363826e-01  3.7360779737778926e-01 1.4536891440829260e+00 7.0904847763250223e-01  1.5247474439630542e-02 1.7053739000406929e+00 3.3383837086238283e-01  4.1345480972731058e-01 4.2453999709458612e-01 9.2172482193022642e-01  3.1317514631033527e-01 2.0159172022276479e+00 2.4761397780428943e-01  -3.1191715485866495e-01 2.0449541405361913e+00 2.2408276170773314e-01  -9.7215487578276882e-01 6.9472858669307647e-01 3.3555428252242459e-01  -1.0123006712902591e+00 1.3495813928645262e+00 3.0819569579670153e-01  -1.2227545022102752e-01 1.1738353567592543e+00 8.1821271523171335e-01  9.9646510637627184e-01 9.8394957138324535e-01 2.8395422017954475e-01  -7.4647048115604664e-01 1.1997243809003173e+00 7.2651938481909084e-01  8.6206615734957992e-01 2.6452656768917676e-01 5.4788950507925394e-01  1.8763707961641540e-01 2.4287472430655805e+00 -1.7209175579914104e-01  -6.5194087530182276e-01 2.5975822053321664e+00 2.1885537638807098e-01  -3.2903847087603671e-01 1.5319080656113393e+00 6.2536462974294316e-01  9.6330396418373232e-01 1.5914202718567076e+00 4.8667820129734968e-01  -6.9613050577849356e-01 2.3464823389173386e+00 3.8606733009139510e-01  6.7022591892296346e-01 7.9848058761730778e-01 7.8074316523275167e-01  -9.7145176001083267e-01 3.0828432189011523e-01 3.1394964802535708e-01  -6.4464140934938263e-01 5.6916806569898526e-01 7.9649187327467963e-01  -4.0140020865809484e-01 7.2177093422219130e-01 9.1896449845907269e-01  8.4488101470339538e-01 1.1856154790412854e+00 6.2665042486657363e-01  -8.5697366762960803e-01 8.0643915774015518e-01 5.8456390956168591e-01  -7.0316376818960291e-01 2.8931986766168760e-01 7.4107892298483247e-01  -8.8727847734580723e-01 1.8332423935931643e+00 5.5499232448799363e-01  -1.4739051617001206e-01 2.5468990828767551e-01 9.9334982823184681e-01  1.9815809402211110e-01 2.0620378100413980e-01 9.8831143928768073e-01  5.9727577578303692e-01 2.3205153651735499e-01 8.2513693395285970e-01  -4.1423833495343859e-01 1.0346168237890776e+00 8.9926621967809239e-01  8.1546170539698470e-01 2.4228563420571119e+00 3.8593456174091406e-01  7.7669952187998126e-01 2.7659678878744818e+00 2.0946321584890307e-01  4.7884971191266446e-01 2.7840021160478092e+00 -1.0358363440621729e-01  1.6276179773964242e-01 1.5470189544433950e+00 5.0340600274643299e-01  4.9351798037859607e-01 1.9824408388456072e+00 4.5477449942509435e-01  1.0731989658026078e+00 1.6981738148002408e+00 1.9970831393144525e-01  8.8715045920667568e-01 2.0960033028537230e+00 4.9250153973215766e-01  -1.1545465249096982e+00 3.0229881293433851e+00 1.5318369064470372e-01  -1.0996090237720202e+00 2.7416950482472404e+00 2.3249671318352144e-01  1.1493510690721782e+00 2.8125898298694061e+00 1.8724820213805726e-01  9.8350016367530724e-01 2.6283502982326629e-01 2.7047887849965824e-01  1.4256150953157437e-01 8.9537381498944246e-01 9.5755178693410448e-01  -4.6443991087488601e-01 2.5988765423663471e+00 1.1800855000603716e-02  1.1616667340200262e+00 2.4601448582174363e+00 1.9328488984207987e-01  -1.5172165540983884e-01 6.2348218303603742e-01 9.7325135535539165e-01  -1.1314765118003369e+00 2.3585700282672857e+00 2.4065295574506643e-01  5.1540562131269929e-01 1.6685427941120021e+00 6.5085850000223466e-01  1.1493213756815466e+00 2.0711591351888750e+00 -2.0239999039453094e-05  4.4889725992228141e-01 2.5524137582816069e+00 2.3827858362004611e-02  -8.4477563794385291e-01 1.2948783347830885e-08 5.6446295063078655e-01  -4.9602850805210019e-01 2.1994313650733677e+00 3.1876612096721457e-01  1.2165299972458712e-01 2.1861930003729371e+00 -2.3388932329712512e-02  -7.7383815217540275e-01 2.9492624070206945e+00 1.1226170200813032e-01  -4.8233370662858527e-01 1.9778923217124877e+00 4.4831414819613713e-01  -1.0102800030380938e+00 8.9976785735649023e-01 2.0262517781869382e-01  -9.2249433571331274e-01 1.2452301198469711e+00 5.1710602198617128e-01  -1.6355876767326324e-01 1.8532982503833686e+00 2.5773106124769224e-01  -8.6010692480068252e-01 2.7205887397199846e+00 2.6763601046374719e-01  -1.5981739887802157e-01 1.5960154893679892e+00 4.6180267583562801e-01  -2.8458486473062045e-01 2.4738677786620982e+00 -1.1739661242914125e-01  4.6054561121784865e-01 2.2160123962252132e+00 2.6844983011866735e-01  -6.7975478394549749e-01 1.4313197523876491e+00 7.4352345425807786e-01  8.1529897198520995e-01 6.7141577314898637e-01 6.3429363450355203e-01  -8.5272228579680454e-01 2.3584499377633808e-01 5.6099116668296645e-01  9.9537824177995982e-01 7.3515267296582254e-01 2.5405803313593034e-01  5.4733258259339346e-01 6.1055287238325306e-01 8.5838390939937659e-01  5.6436768266652004e-01 1.3360780364014757e+00 7.9900695748372208e-01  -5.1420440258088429e-01 2.0399106763148733e-01 8.7695325278938685e-01  -2.5245719935062055e-01 2.1982063781850933e+00 5.2072209859080738e-02  -1.0211665435632493e+00 5.6639636378445302e-01 -1.5498711508297172e-05  -2.3776112850084449e-01 1.3419601421544674e+00 7.1481214458505904e-01  2.5640059215408217e-01 5.9294097405215951e-01 9.5941383853950313e-01  1.0305523235528971e+00 1.4914820745884563e+00 2.8976209303509737e-01  1.0453849622067266e+00 1.3210944708303347e+00 -1.4873423070441810e-05  -8.7579622191999795e-01 2.2245418826342416e+00 4.5797799718818710e-01  9.0189366203897503e-01 1.3920506847298759e+00 5.6537975634066173e-01  -9.9647436264918565e-01 -6.7974390799363387e-07 1.9820649118331971e-01  4.0267759626616562e-01 1.0262871791942523e+00 9.0277142501040730e-01  1.6570531962395288e-01 1.3237617263271557e+00 6.9355936431592691e-01  -1.0940524707563308e+00 1.9205958574799329e+00 2.4273140973293786e-01  2.0459630166902870e-01 1.8257281875024705e+00 3.0418444802959232e-01  1.0211774115778196e+00 5.6638341344041976e-01 -2.7397070962219562e-05  1.1126463705154692e+00 2.0618632616920727e+00 2.3688907876770837e-01  -8.4686288825047773e-01 1.0306205937089479e+00 6.1334251984832799e-01  -1.0155690241670641e+00 1.1411157877950735e+00 2.2721952070224061e-01  -1.0185055155078337e+00 1.8886092501205426e-01 -3.3247887943483229e-05  9.4161742255529479e-01 1.0934478812023170e+00 4.5962372007394797e-01  4.0977689859573030e-01 2.1176417415549020e-01 9.2722100942970975e-01  -1.1486249014322110e+00 2.0712863889666173e+00 -3.1088195899583940e-05  8.5255724824433277e-01 4.7308856553155088e-01 5.7283923983091078e-01  1.0025070305419579e+00 4.5655459747372729e-01 1.9622721399730852e-01  9.2601352396374192e-01 7.2518376682050267e-01 4.5709810880342427e-01  3.6148103274743282e-01 1.2736461864926265e+00 8.1790941434388997e-01  9.0473711377284693e-01 1.7981884774620540e+00 5.4748448941535699e-01  -1.7837885097283269e-03 1.0371042431020947e+00 9.1536697491678864e-01  1.0209159695434433e+00 1.1755750888775014e+00 2.0703028147630428e-01  -1.0040832831942048e+00 4.7216288276379154e-01 1.8827950278384631e-01  5.9532234325828562e-02 6.9254164071025881e-01 9.7644053479202864e-01  -9.4952725852858044e-01 4.9605126065597271e-01 3.8596282898208140e-01  -6.0197997412484883e-01 1.0858349748657556e+00 8.2490324055215503e-01  -9.3074763166084495e-01 2.0264817384264346e+00 4.8795385484080933e-01  -1.2503998925240298e+00 2.8284405547150184e+00 9.5308015974027727e-05  7.6971015438776169e-01 1.0118106461561005e+00 7.0079553095345715e-01  6.1043681171697017e-01 2.7006912955733018e+00 1.1406583381954424e-01  -4.9733626644624496e-01 1.5045686552514181e+00 7.3028396094622272e-01  6.7302255276281164e-01 2.0352165289580046e+00 5.2582429688344523e-01  7.1332812774050169e-01 1.6661286307756427e+00 6.7056769147454642e-01  -1.8728215002575171e-01 2.6160686016428643e+00 -3.2091195849177467e-01  -6.0796152867757403e-03 2.4202181580597455e+00 -2.3812299600431264e-01  -1.1424106175326525e+00 2.1682099637570773e+00 1.7670190827792515e-01  9.9647578715374940e-01 -6.7330338794938013e-07 1.9820943802609212e-01  7.7352933695246895e-01 2.9488036509163718e+00 1.1069177784647373e-01  1.9820785184786457e-01 1.5473115273989599e-06 9.9649230661265065e-01  -1.9821648011341475e-01 4.1301575880345961e-07 9.9648270799350447e-01  5.6445634807475031e-01 1.6834063861749916e-07 8.4477752955848462e-01  1.8611185882231082e-01 2.6158272539824963e+00 -3.2151419155821942e-01  8.4477860672985117e-01 -1.8414910915848321e-07 5.6446236622403123e-01  1.1543185335819264e+00 3.0230700265727450e+00 1.5263511058671972e-01  -4.7945835935999559e-01 2.7844205960713477e+00 -1.0246453588450907e-01  -5.6446398561226307e-01 -1.6961991029221392e-07 8.4477156531725839e-01  -6.9793157832629266e-02 2.1349535651856857e+00 5.0416513377149270e-05  9.6462673482524364e-01 2.8062822520354826e+00 2.4567144021772211e-01  4.8380100799890119e-01 2.4172883062165202e+00 1.5899358726337989e-01  6.3387517614883315e-01 2.3747278404264462e+00 3.3326683189982798e-01  7.9396272067626383e-01 2.5971658503359398e+00 3.0275819780322571e-01  3.4364082907147936e-01 1.5998801399669986e+00 5.8664560915532404e-01  -7.0774753670137980e-01 2.7732815156385509e+00 1.5981321304381030e-01  -3.3146254337530257e-01 1.8886351116622146e-01 9.5627422858375744e-01  -1.1711629064851934e+00 2.5542554766143954e+00 1.8141567555417890e-01  -9.4821741210181187e-01 1.6430178050717401e+00 5.1197072622282458e-01  -1.0498114608182050e+00 1.5323440183690185e+00 2.1169573729858035e-01  -1.0872403897017147e+00 1.6968114273673995e+00 -3.2296139776697504e-05  -7.9950842401142874e-01 1.6500658788461195e+00 6.4339843336687541e-01  -5.6981826539714797e-01 3.9098639962768422e-01 8.4524270159316417e-01  1.2512522744544523e+00 2.8282906531670977e+00 -6.7480302695782931e-06  -1.0285168278254628e+00 9.4386530540780533e-01 -1.7204651963355410e-05  1.0184936649571799e+00 1.8885767336504952e-01 -2.9239823016663924e-05  1.0876593775164136e+00 1.6967293043207519e+00 -1.7349368384245417e-05  1.0285673106049484e+00 9.4384364996634662e-01 -4.8534223873265493e-05  -1.0452542556311959e+00 1.3211284084800710e+00 -3.1679530270006547e-05  1.2081432253617270e+00 2.4480443643631133e+00 -2.5751727599175410e-05  -1.2074875048348030e+00 2.4481622023229299e+00 1.7524857871908300e-05  7.4203397859151432e-01 2.8677186370483432e-01 7.0270311057979173e-01  -1.0159408877304639e+00 1.8721253326033294e+00 4.1650358031750451e-01  -7.8760724525689263e-01 6.3457605036142584e-01 6.6612966981975841e-01  -3.1838745156250259e-01 1.1997794181409929e+00 8.5079404244520884e-01  -7.0833212532338929e-01 1.8928751051214241e+00 5.9207316738523730e-01  -4.3092234548858638e-01 1.7016840398010051e+00 5.8343996379573659e-01  -5.5169715430587940e-01 2.3715277608415009e+00 2.6547318120021879e-01  5.3400311675759338e-01 8.9874294963881862e-01 8.6353181506234045e-01  1.8128749981803688e-01 2.0563141049272127e+00 1.0868956124293738e-01  4.9548909872973795e-01 1.8245950904508332e+00 5.5234658736984210e-01  1.0359041990775273e+00 2.4462322848791116e+00 3.3083020967641158e-01  1.1482570924075217e+00 2.2381082086821134e+00 1.8520062879669669e-01  1.1011577810842490e+00 1.8819650253648894e+00 1.8952948939395239e-01  -2.2905825195549784e-01 1.0506382135606291e+00 9.1541740103478475e-01  7.1795777466254784e-01 1.2496093123220118e+00 7.4641450635113293e-01  5.4822759878180094e-01 1.5091369893811237e+00 7.3661705006449341e-01  -2.0543752908931603e-01 4.3861889284914507e-01 9.7539186632173225e-01  -1.0020285535065387e+00 1.5132399647709869e+00 3.9201087296813159e-01  -1.0156829394438034e+00 2.3072073139922296e+00 3.7327558137832234e-01  -1.0105284627662021e+00 6.4906677322776196e-01 1.6237324953217469e-01  4.1963696243817447e-02 1.8471465058174852e+00 2.2264697309180428e-01  5.7457154721644244e-01 4.3550713438618310e-01 8.4256073046337721e-01  2.3915351508419416e-01 4.1379569554824974e-01 9.7063557806385170e-01  1.1417084909518638e+00 2.6363179609023817e+00 2.1624434445503410e-01  8.2050872932117880e-01 2.2569813192898143e+00 4.5236356820081225e-01  -5.1961989029015043e-01 2.4990518473162115e+00 1.4733680894437604e-01  -5.3854045668665551e-01 1.8558651574895590e+00 5.6117658021694083e-01  1.0292785104941222e+00 2.0684926954036116e+00 3.9297250786102894e-01  -4.8798227647818132e-03 1.2626695731100770e+00 7.1126839807213393e-01  3.3391765107575117e-01 2.1630848565596215e+00 1.5932161074887746e-01  3.5071345440145107e-01 1.8993841868825241e+00 3.7346199730978868e-01  1.8654064026004710e-02 1.8077082900871641e-01 1.0069346353871473e+00  -7.9269289568800738e-01 2.5689986399898945e+00 3.1694368072165841e-01  1.7525473136219866e-01 1.6841075730055748e+00 3.9897108099083073e-01  3.2433410243178606e-01 2.4421463204549183e+00 -5.2097981990931380e-02  -3.1642986954851909e-01 5.7132745593276713e-01 9.4739374620987249e-01  -4.8809602618187375e-01 5.6749972472022159e-01 8.8832698636364793e-01  6.0940844447673621e-02 2.3013103171691740e+00 -1.3460414487581224e-01  -1.7722082592833255e-01 2.0508256519471635e+00 1.1034566742892468e-01  -9.0272989296092154e-01 6.3489261695622123e-01 4.9747866119534861e-01  -9.6764228169600097e-01 8.6132697971483618e-01 3.6584494511056670e-01  -3.7075315224501998e-01 2.1969810144581401e+00 1.7600418250291741e-01  -3.1060154984727073e-01 1.9094218108686447e+00 3.2572352406690352e-01  -1.0093818133404817e+00 2.8329135724236426e-01 1.4524904428945634e-01  7.8741661388795736e-01 1.3575052728725126e-01 6.4539482453577568e-01  -6.4316416491690653e-01 1.3890596733660709e-01 7.8861736060977605e-01  -1.0858539034636316e+00 1.7588663294390490e+00 1.6970675254407053e-01  1.0365189182843322e+00 1.3505193922473941e+00 1.7926612668487785e-01  -5.0045553525767716e-01 8.7447049072266680e-01 8.7921448618596232e-01  -5.9526519219302254e-01 7.3441362391178300e-01 8.3095638494142821e-01  7.3373699991802141e-03 1.5743293894548911e+00 4.4025075977259631e-01  -9.7410000500060634e-01 1.3931599155547203e-01 2.9535793528827314e-01  -5.8199046886753081e-01 2.6833858705246412e+00 9.5933861110976376e-02  1.0183032111243850e+00 8.4968463492223467e-01 1.3664506373107735e-01  -1.7465690596435629e-01 1.7275679010158587e+00 3.6368350072971845e-01  6.8446271572272643e-01 6.3489115524855966e-01 7.6660205600593345e-01  -9.1230399687022024e-01 3.5533363701005627e-01 4.6299644007748103e-01  2.2108975749122667e-01 2.3128996141117715e+00 -6.0111332831743226e-02  8.5178254206140103e-01 1.5826796596308608e+00 6.1808980233437627e-01  4.9837073082018551e-01 1.1935019771336386e+00 8.4967867603195979e-01  -3.0938860437172072e-01 2.3493946913247834e+00 -3.4966316426588229e-03  8.1623350970892383e-01 1.9604300801584742e+00 5.5519207594784226e-01  1.0027276572021615e+00 1.7399403956561155e+00 4.3141724681666022e-01  -7.4477445346680415e-01 4.5625819671775592e-01 7.0604577220351394e-01  2.1388863023140095e-01 7.4992745666533878e-01 9.6024225843303057e-01  -5.7403914318664029e-01 2.1155161306778707e+00 4.3836334857460646e-01  -6.1232238985050680e-01 1.2473841510790760e+00 8.0454864420740857e-01  -7.3320442551648213e-01 1.0346554123178691e+00 7.3539096275812021e-01  -8.0022363751670589e-01 1.3465362265917376e+00 6.7820542315359722e-01  9.4616757307137722e-01 9.3686278002220058e-01 4.3072148197776111e-01  -9.7825495219211211e-01 1.1789865311827881e+00 3.8057496074568886e-01  8.9772580475671171e-01 1.2504310207555555e-01 4.7953654533361384e-01  9.1734893645188420e-01 3.8380220715551183e-01 4.5418671887008544e-01  -6.3688094490255320e-01 1.5818611402060625e+00 7.1018258275003798e-01  9.7899141428948211e-01 1.4433527760156666e+00 4.3407212802473905e-01  -8.7358454288476584e-01 2.378