<?xml version="1.0"?>
<VTKFile type="UnstructuredGrid"  version="0.1"  >
<UnstructuredGrid>
<Piece  NumberOfPoints="758" NumberOfCells="1386">
<Points>
<DataArray  type="Float64"  NumberOfComponents="3"  format="ascii">-1.570796326794897 3.048 0  -1.570796326794897 0 0  1.570796326794897 0 0  1.570796326794897 3.048 0  0 0 0  0 3.048 0  -1.570796326794897 1.524 0  1.570796326794897 1.524 0  -0.04609926118424437 1.524 0  0.7853981633974483 0 0  0.7623485328053261 2.262242601661362 0  -0.7853981633974483 0 0  -0.7853981633974483 3.048 0  0.392699081698724 0.7745759241961347 0  -1.570796326794897 0.762 0  -0.8084477939895706 2.0955 0  -0.68277245543452 0.8915343570675713 0  0.7853981633974483 3.048 0  0.778743707341909 1.468410948960538 0  2.780093748954961e-16 2.285302774973185 0  -1.570796326794897 2.286 0  1.570796326794897 0.762 0  1.570796326794897 2.286 0  -0.9375370967763674 1.47348297960658 0  0.9831575747762593 0.9003629142671278 0  -0.3926990816987241 0.4064697549061488 0  1.177419588818055 1.905 0  0.3692901340097942 1.880893989147954 0  -0.4920225169641509 2.564371687128368 0  0.3926990816987241 3.048 0  1.178097245096172 0 0  1.155705348811136 2.643920532523289 0  -1.178097245096172 3.048 0  -1.178097245096172 0 0  -0.1391296372266528 0.8873724190154949 0  -1.10527745318919 2.528282743051346 0  -0.9817477042468103 0.4742759268549471 0  -0.3416666987802651 1.923944646262223 0  -1.570796326794897 1.905 0  -1.156555306160469 1.030861936336814 0  0.7648449098493205 0.4764142032227 0  0.3926990816987241 0 0  -0.4820376416180818 1.326151321396512 0  0.06374421723344185 0.4545169930886408 0  0.1972735722393064 1.163324878565267 0  0.3900417218314142 2.566922767651637 0  1.570796326794897 0.381 0  1.188877612935585 1.295195418509834 0  1.179914028402171 0.5308585702661928 0  0.7660075594126428 1.865233039449035 0  0.6330293131838399 1.095171663968746 0  -1.201232463242587 2.144287146570887 0  -0.3926990816987241 0 0  -0.3926990816987241 3.048 0  1.178097245096172 3.048 0  0.7684409382397209 2.649499271873753 0  -1.236954997304436 1.7145 0  -0.1088573452899617 2.666651387486592 0  -1.570796326794897 1.143 0  -1.570796326794897 0.381 0  1.570796326794897 1.143 0  1.570796326794897 1.905 0  1.570796326794897 2.667 0  -1.570796326794897 2.667 0  -0.6730839067294777 1.743003792473746 0  1.199831389396789 2.275437921225198 0  0.3936837537618041 1.495643752599615 0  0.01539369169800942 1.928544709491661 0  0.4156551272669651 0.4219033286010089 0  0.3401546043708642 2.225103550856524 0  -0.3379897306391274 2.262671266279809 0  -1.23624174049596 0.7000907110925838 0  -1.265224057170889 1.360131453617764 0  -0.1224339018241312 1.210043725539656 0  1.289286200625578 0.9918698881707442 0  -0.7751142346211329 1.197848666814478 0  1.003546186550495 0.2660297686099683 0  0.1963495408493621 2.808538634159524 0  -0.8079023568959116 2.703551618159924 0  -0.3480226984353056 1.610059855391589 0  1.075147893506229 1.598068412087719 0  -0.8290627893979112 2.399544545867518 0  0.6965048925255637 0.7972100472372819 0  -1.257765094876752 0.3107645483825858 0  -0.6724835324263325 0.5684215760013651 0  -0.3995059642389676 0.7173610149075536 0  0.9136951972244611 1.187564504803626 0  -0.964259350608907 0.8095514380783081 0  -0.7565990314517038 0.2897049735129544 0  -0.9603859887840651 1.834914433810327 0  -0.1457055965762301 0.2521630699436873 0  0.1963495408493621 0.2041911848053476 0  0.6241974196550791 0.231695999252114 0  -0.4098815011312292 1.029160072548571 0  0.9592800715482012 2.452820690856482 0  0.9648684169153161 2.840751931000357 0  0.5890486225480862 3.048 0  0.164631037784102 1.698913854044779 0  0.5664480837073581 2.070920238540226 0  1.374107957806476 1.7145 0  0.9861079629544779 2.102471438422718 0  -1.374446785945534 3.048 0  -1.288827800789186 2.762781313597598 0  1.353232957571468 2.835634774483438 0  1.302158670506274 0.2650078124691045 0  0.1394669809465775 0.8907702620243092 0  -0.5631487221059602 2.830992231257464 0  1.372837635547072 2.483038902756259 0  -0.1493395228831287 0.618617259260858 0  -1.32327048447753 2.378769394323546 0  0.56080204725298 1.699622905297025 0  1.570796326794897 2.0955 0  0.5403456747786348 2.786446773498672 0  -0.9817477042468103 0 0  -0.5847039960246873 2.326882432521036 0  0.1225428891326576 2.526494255738436 0  -0.9817477042468103 3.048 0  -0.5522901559753841 2.071668786267058 0  -1.370864794258017 0.9075071715671403 0  -1.043891045637083 1.250611220450313 0  -0.1652643923634778 2.09141301924679 0  -1.044446740946883 2.764982067459552 0  -0.1610370079820225 1.763280243096074 0  -0.3136912237752232 2.810498886211121 0  0.5400974078002052 2.370472734822523 0  -0.7009161718414544 1.427243880175582 0  0.902907438200502 0.6735032943420574 0  -0.9879196222361604 0.2371379634274736 0  1.319268546233604 0.7412771512308228 0  0.5578373583610097 0.608241627784878 0  0.5756483102040615 1.332636919938113 0  -0.5281701577409 0.2032348774530744 0  -0.266729509930448 2.489223923247521 0  -1.570796326794897 0.5715 0  -0.2430656531629531 1.405631921096758 0  0.253622337931223 0.5884397663452474 0  1.284044721043478 1.50372037617638 0  1.570796326794897 1.3335 0  -0.9904333867980613 2.235882060371517 0  0.9871146764618406 1.395690276854986 0  -1.374446785945534 0 0  0.3981951765262902 1.020833864419675 0  0.1670583512016766 1.405384478716078 0  -1.330327693484763 1.938638984813805 0  0.2106653067452682 2.040805097078886 0  1.570796326794897 0.5715 0  1.334822181490566 2.081373939821734 0  -0.9303227889097604 1.033236710715967 0  -1.34639228476592 1.150776798768373 0  -1.570796326794897 0.1905 0  1.106697207481837 1.099709897393925 0  0.4137866939027022 0.2104288000383385 0  -1.570796326794897 2.0955 0  0.9761377489246634 0.4754251272674608 0  1.377108465632662 0.4605024587280874 0  1.108114944719677 0.7297638044096917 0  0.3695908229138113 1.285681859811955 0  0.9799112840676307 1.800306505551499 0  -0.001696842075803034 1.042028929293442 0  1.366537356420357 1.185723700290463 0  -1.385029840108318 0.47625 0  0.05842649915411911 0.6874537157920781 0  -1.183268988745763 0.4997334438341218 0  -0.6073502281622543 1.081347079085406 0  -1.026941765261019 2.031536576622642 0  -1.570796326794897 2.8575 0  0.8159726599830506 1.011928543199529 0  0.7652782693277244 2.849245002237192 0  -0.5252326280373281 1.520125074885265 0  0.7648326174724897 2.063743853392348 0  0.757099741434616 1.666331708950521 0  -0.1963495408493621 3.048 0  -0.005410422648647092 2.843333256403111 0  -1.395368347654653 2.19075 0  1.374446785945534 0 0  0.9817477042468103 3.048 0  0.1963495408493621 0 0  -0.1963495408493621 0 0  0.5890486225480862 0 0  0.1963495408493621 3.048 0  0.9817477042468103 0 0  1.374446785945534 3.048 0  -0.5890486225480862 3.048 0  -0.5890486225480862 0 0  -0.06865319188571758 2.471928549109083 0  1.159049337209348 2.838090892449816 0  0.5817075150535711 2.596909954318943 0  0.7656515661107315 2.455866896253367 0  0.9620790410056582 2.647119292933887 0  0.3676829480103987 1.68739481709134 0  -0.8886101495223063 2.878912500124773 0  -0.3317793704126089 0.1873756770788371 0  -1.383208664444332 2.577695923010364 0  -1.043597917648523 1.648216005744782 0  -1.362178343413552 1.546177620526679 0  -1.570796326794897 1.7145 0  -0.8462722504471433 1.648434957877788 0  -0.588076822054871 0.3899352838051667 0  1.570796326794897 2.8575 0  -1.570796326794897 0.9525 0  1.570796326794897 0.1905 0  1.570796326794897 1.7145 0  1.570796326794897 0.9525 0  -1.570796326794897 1.3335 0  1.570796326794897 2.4765 0  -1.570796326794897 2.4765 0  0.8103777117362174 0.287468585434799 0  -1.145334531235929 1.881885620422454 0  -0.8620560674467429 0.6361265362229395 0  -0.321688879263093 1.207848147265888 0  -0.7798551871678058 1.904240998338365 0  -0.4724954359209014 1.769587110195458 0  -0.667402576232105 2.495985359319255 0  0.5365063314111709 0.8945566719544227 0  0.1855702280441107 2.342745654422604 0  0.55510120733165 1.88540118775351 0  1.188295809121239 2.460939894898248 0  1.38587897409014 2.260870763688798 0  1.383978812419919 1.901097375082534 0  -0.2265735189171196 1.049795314962436 0  0.7387890113368257 1.246392780742437 0  0.5763234466275948 1.516457524623135 0  -0.203279258075353 0.4348372558382012 0  -1.179202350299698 1.523245956950107 0  -1.151844216720993 2.318990544544152 0  -1.410806081599612 0.6547540757597369 0  0.04190096621848406 2.108399609871347 0  0.5925649981629265 0.4343292987553075 0  0.2371113691258682 0.4102816185532077 0  1.334103818253725 2.657728219912091 0  0.9405077369493808 2.275181409651143 0  -0.633962040105568 2.669303984283053 0  -0.6045614816381242 1.904349918307267 0  1.159697673803787 2.079238591118184 0  -0.004643801590645341 1.347662554528907 0  0.3691400131247499 2.395423267764724 0  0.3855005143298051 2.055603978165229 0  0.01839821075864462 0.1788084577298442 0  -0.9568120219060965 2.61629404172056 0  0.1783135820912846 1.871116340262054 0  0.3649950158263953 2.745288921627024 0  -0.3142054567155264 0.5671999812317062 0  -0.4933549623779417 0.564740705097546 0  0.06092775470575962 2.685867440722903 0  -0.1801827362748675 2.337517890002858 0  -1.063355415037434 0.6386189748554 0  -1.205242865599393 0.8676070232612285 0  -0.4176020549597784 2.412196127179313 0  -0.3347051678178828 2.093252344225509 0  -1.427772711006951 0.2857500000000001 0  0.8835729338221293 0.1362887052191026 0  -0.6831011505337878 0.1389086130988801 0  -1.403875662049666 1.77648180985222 0  1.394165436236593 1.362588987767805 0  -0.5007942298153729 0.8700626692351643 0  -0.6093220848169366 0.7321530406295067 0  0.007534593095922887 1.760126887057542 0  -1.276272015520854 0.140425968067263 0  -0.7270478511000733 2.847016806985676 0  1.436331331726002 0.85725 0  -0.1770320080670663 1.927167796173981 0  0.7200726153501196 0.6345534912379586 0  -1.099983122078282 0.3577316115390257 0  0.2324759135153202 2.648405702327079 0  0.9054371869972004 1.582409569434113 0  0.5000672234640285 1.188708149930449 0  -0.340793734207542
[...]
<PointData  Vectors="phi"> 
<DataArray  type="Float64"  Name="phi"  NumberOfComponents="3" format="ascii">-1.0261338857626410e+00 3.0460068805152156e+00 -1.8038551670312851e-05  -1.0160034388488759e+00 -3.2372000045758368e-08 -1.0615260594969709e-05  1.0160036802832340e+00 -2.4700715079556093e-08 -1.2475480438350553e-05  1.0261432915889395e+00 3.0460067238323614e+00 -8.7534484291698811e-06  -5.9803520168154420e-06 7.3858282101678056e-09 1.0160028818996125e+00  -3.7180532875984852e-06 3.0469594187198603e+00 9.1278966180709953e-01  -1.0240141151328608e+00 1.5221744588086548e+00 -1.7813248771357169e-05  1.0240192582168726e+00 1.5221737998753095e+00 -2.5892472114164242e-05  -4.6805486832394411e-02 1.5264876368036160e+00 1.0033564743396930e+00  7.1842655119180610e-01 3.6025737033460660e-08 7.1841608687040071e-01  7.1286300868271513e-01 2.2614531216974361e+00 7.3367835531958137e-01  -7.1842509950456868e-01 -3.9775966871227220e-08 7.1841755042055744e-01  -7.4159791389701513e-01 3.0466906152914817e+00 7.2390768322520149e-01  3.8884895140895609e-01 7.7546208721624699e-01 9.3589630589127182e-01  -1.0195664951062904e+00 7.6083484205530127e-01 -1.9386127167982616e-05  -7.4476210457267178e-01 2.0946155559205906e+00 7.0063961317171630e-01  -6.4200747125682578e-01 8.9170773203708975e-01 7.8635383360398514e-01  7.4161143762787274e-01 3.0466966192408811e+00 7.2391307523914517e-01  7.1769517118769854e-01 1.4680802672227329e+00 7.2098798491238414e-01  2.2511622463813353e-06 2.2888231361882241e+00 9.8733282384079180e-01  -1.0264991060025264e+00 2.2840075446153474e+00 -2.1366581881314178e-05  1.0195696507616558e+00 7.6083444132420885e-01 -3.0902210206983245e-05  1.0265100954388824e+00 2.2840073886593939e+00 -5.3877368587892290e-05  -8.2458976081718383e-01 1.4725547835841619e+00 6.0029335770420456e-01  8.4802898712997210e-01 8.9971648374577085e-01 5.6267864490313468e-01  -3.8869042824266808e-01 4.0695757037146058e-01 9.3744640110369171e-01  9.4867817762140294e-01 1.9032323904217123e+00 3.8960888694250490e-01  3.6802290773052693e-01 1.8827088868868629e+00 9.3568430412257153e-01  -4.8784292855487071e-01 2.5652503239889461e+00 8.8487871539245999e-01  3.9664166511064636e-01 3.0497034625201529e+00 9.1285086114309244e-01  9.3866159357416812e-01 -4.2491941947029315e-08 3.8880666110374107e-01  9.4509221204303029e-01 2.6419675400010179e+00 4.1101456689749433e-01  -9.5537784875329634e-01 3.0460143878443326e+00 3.9046878638881172e-01  -9.3865830292377384e-01 -1.1531852561397239e-07 3.8881433464735909e-01  -1.4085007040427522e-01 8.8882899231682533e-01 1.0019246984489518e+00  -9.2322686184836666e-01 2.5263836188589828e+00 4.5743882133033753e-01  -8.4569549334257410e-01 4.7393926568845679e-01 5.6423992852780991e-01  -3.4154781803875789e-01 1.9259366819760517e+00 9.4416517542712031e-01  -1.0256667191524711e+00 1.9030437285295732e+00 -2.4365055929670534e-05  -9.3412754710663959e-01 1.0297508225823551e+00 4.0874544921492362e-01  7.0387605173927570e-01 4.7640808022645798e-01 7.3237487719597483e-01  3.8881350095072242e-01 6.7597073336795275e-08 9.3866047790542073e-01  -4.7197021394086586e-01 1.3271517912901094e+00 8.9497904913163095e-01  6.4680015285175863e-02 4.5531382368059858e-01 1.0122064200422300e+00  1.9911049568105429e-01 1.1650908754124119e+00 9.8983114630059987e-01  3.9106620277488235e-01 2.5686834433780499e+00 9.2171923956941371e-01  1.0176749046392199e+00 3.8036862240396929e-01 -1.9390676509136266e-05  9.4869622921545183e-01 1.2938021744522137e+00 3.7851742706099811e-01  9.4106708901895619e-01 5.3021924147304733e-01 3.8709169882192718e-01  7.1133975131438432e-01 1.8647211211418164e+00 7.2999051563137496e-01  6.0231852303089373e-01 1.0955183174728100e+00 8.1634099644625469e-01  -9.5929712284962410e-01 2.1424010490991625e+00 3.6738798787698124e-01  -3.8880374243172638e-01 3.5491589974154931e-09 9.3866301825708798e-01  -3.9666197716048301e-01 3.0497120148695909e+00 9.1296632726702831e-01  9.5538156239399930e-01 3.0460146761145488e+00 3.9047337057225856e-01  7.2279860715374145e-01 2.6484060384987917e+00 7.3201096582811254e-01  -9.6885013496504024e-01 1.7127568407792957e+00 3.3295402399104274e-01  -1.1059397538065700e-01 2.6701471680973037e+00 9.6748372542017291e-01  -1.0218330512002711e+00 1.1414351356501840e+00 -2.6829077670930377e-05  -1.0176740070060200e+00 3.8036880761390579e-01 -2.5172338909351699e-05  1.0218355927992651e+00 1.1414345244613084e+00 -9.8127354161884248e-06  1.0256739004603628e+00 1.9030434289234746e+00 -5.1769907724306973e-05  1.0266052022633378e+00 2.6650109030901326e+00 -2.2631342581516795e-05  -1.0265967900546551e+00 2.6650109521353218e+00 -2.2743969786725278e-05  -6.3804533123060814e-01 1.7430431697194912e+00 7.9061442553583705e-01  9.5963114303760744e-01 2.2735176952784033e+00 3.6887086465799540e-01  3.9049553369251416e-01 1.4971186004119394e+00 9.3063544550194932e-01  1.5627214284113216e-02 1.9316167269294444e+00 9.9680182429455622e-01  4.1012874943667943e-01 4.2238283209880850e-01 9.2826476300166127e-01  3.4083250164351797e-01 2.2272372136928000e+00 9.4063681779694353e-01  -3.3887152350454602e-01 2.2648285188749631e+00 9.4075454464865405e-01  -9.6227899412307538e-01 6.9919657177677930e-01 3.3360115887243746e-01  -9.7556706596735099e-01 1.3585788422174394e+00 3.0561031630200375e-01  -1.2405645579723797e-01 1.2119970738703378e+00 1.0011201957429834e+00  9.8040854620887452e-01 9.9060444487717281e-01 2.8222174038461401e-01  -7.1354972710431064e-01 1.1976542969556576e+00 7.2383256959041953e-01  8.5735867472806104e-01 2.6582678385778241e-01 5.4588248847510135e-01  1.9923139012109281e-01 2.8115198238983341e+00 9.5168510975002796e-01  -7.5241287867585116e-01 2.7022526626122239e+00 7.0454485373981757e-01  -3.4716543817784751e-01 1.6118171601320290e+00 9.4564808016423918e-01  9.0127590202399155e-01 1.5966691424311228e+00 4.8295570810035976e-01  -7.6309052503394592e-01 2.3983450200087866e+00 6.8702408491852152e-01  6.5260382210694123e-01 7.9734349646348324e-01 7.7778073562026739e-01  -9.6770826299435053e-01 3.1033574982423262e-01 3.1294082396501827e-01  -6.3320199180828740e-01 5.6858599592769943e-01 7.9371064200313168e-01  -3.9519916673393102e-01 7.1817545735850752e-01 9.3354028475599682e-01  8.0796660048155411e-01 1.1869087266677125e+00 6.1951345105682576e-01  -8.3674118483927884e-01 8.0901166781589162e-01 5.7857713128731714e-01  -6.9756377763798738e-01 2.8971612598347535e-01 7.3846749839139547e-01  -8.4140715472819105e-01 1.8336480559849180e+00 5.8198662313459271e-01  -1.4747126590867318e-01 2.5258641129068243e-01 1.0043505984393475e+00  1.9815247293300725e-01 2.0451959253087187e-01 9.9580708398757634e-01  5.9376820721541101e-01 2.3181155726132524e-01 8.2401397145651689e-01  -4.0511336778454077e-01 1.0302338073719295e+00 9.2774291562165478e-01  8.4738208545230564e-01 2.4511753052846221e+00 5.8492225707551670e-01  8.5478520729985552e-01 2.8389735313630777e+00 5.8199765423203442e-01  5.8268920758244291e-01 3.0479318843866658e+00 8.4350715805078402e-01  1.6655096778663714e-01 1.7014428908778674e+00 9.8878366218696845e-01  5.5047766196183523e-01 2.0714622839973704e+00 8.5052743568400957e-01  1.0054008674729806e+00 1.7126436573672281e+00 1.9857004906678019e-01  8.5897282593186142e-01 2.1009499369457054e+00 5.6117257159950751e-01  -1.0084868169041667e+00 3.0460013131200072e+00 1.9844280192223882e-01  -9.8930077891369506e-01 2.7607901311086049e+00 2.8324546151502827e-01  1.0044626444896072e+00 2.8336404022270085e+00 2.1959517295537465e-01  9.8052274395648620e-01 2.6462127826137044e-01 2.6975345520701921e-01  1.4116963935991730e-01 8.9223215626945984e-01 1.0018542400956649e+00  -5.5636585611750067e-01 2.8311394469231872e+00 8.5438831961355444e-01  1.0079102914443263e+00 2.4810463937073375e+00 1.9997071428600449e-01  -1.5109499875831725e-01 6.1964770512041034e-01 1.0022134217804293e+00  -9.9706029649403627e-01 2.3767879002183734e+00 2.4916056357429991e-01  5.4328967122567540e-01 1.7002960173973269e+00 8.5451231974063990e-01  1.0262004245006211e+00 2.0935160976340303e+00 -2.2955757241207665e-05  5.3511329210545511e-01 2.7868013552280062e+00 8.6470580707792188e-01  -8.4477311607783101e-01 -2.2206579324710110e-08 5.6446121382784287e-01  -5.6874960979498834e-01 2.3271609010524328e+00 8.4109551667977656e-01  1.2438990108030396e-01 2.5299878568822227e+00 9.7324476746413913e-01  -8.6641935777616863e-01 3.0461699726741114e+00 5.6872562020538331e-01  -5.3801000282563660e-01 2.0723070585051504e+00 8.5771409252764841e-01  -9.9991147786390422e-01 9.0625072231243764e-01 2.0179936873827423e-01  -8.8298318994839586e-01 1.2495497937117717e+00 5.1040953396343458e-01  -1.6728191820313429e-01 2.0943940086822161e+00 9.8118696088315771e-01  -8.9640735415998130e-01 2.7631041488473693e+00 5.1284494785013146e-01  -1.6295413349615862e-01 1.7658986193757336e+00 9.8827055587382961e-01  -3.1740595202563426e-01 2.8128335464145695e+00 9.3642752209234847e-01  5.2967909271044356e-01 2.3710596389934420e+00 8.6330754200343873e-01  -6.5830937272984469e-01 1.4272688029429197e+00 7.7349697462967082e-01  7.9892161095106839e-01 6.7317808819435543e-01 6.2862538873228446e-01  -8.4863937381220445e-01 2.3696862529339371e-01 5.5920371447496420e-01  9.8710856891620546e-01 7.4025026374739722e-01 2.5290255946776635e-01  5.3795710419685583e-01 6.0864898376327625e-01 8.6045009137038686e-01  5.5469224574406317e-01 1.3332345120458069e+00 8.4807767869584227e-01  -5.1192887444416013e-01 2.0339989535431602e-01 8.7712942139395333e-01  -2.6936647636473338e-01 2.4919447905413219e+00 9.5422969007183689e-01  -1.0185548697817493e+00 5.7058544721370164e-01 -1.5131479935640063e-05  -2.4461920622443417e-01 1.4075881650375808e+00 9.7748063433303511e-01  2.5482329665306891e-01 5.8932548519226324e-01 9.8132182530505341e-01  9.8214860003200855e-01 1.5020463343686763e+00 2.8735463979521431e-01  1.0229676299560553e+00 1.3317867688583578e+00 -1.4603073777109180e-05  -8.6280795204041216e-01 2.2342729237999115e+00 5.5793408712931603e-01  8.5318962744523907e-01 1.3946684567829042e+00 5.5920650036516861e-01  -9.9647895845240364e-01 -1.2304361867701333e-07 1.9820770381013555e-01  3.9416624698788993e-01 1.0219356919601466e+00 9.3238014362886212e-01  1.6893514601106127e-01 1.4075335746783171e+00 9.9254826801122509e-01  -9.9696560374059207e-01 1.9367286750450159e+00 2.4206639863101692e-01  2.1276116185798941e-01 2.0435520471413233e+00 9.7479372227558281e-01  1.0185570465610294e+00 5.7058524096313534e-01 -2.6545291752833963e-05  9.9869759524607482e-01 2.0794263638552430e+00 2.3766569966138928e-01  -8.1744737892992558e-01 1.0326323057671594e+00 6.0624493292841797e-01  -9.9608183649897286e-01 1.1493052652338844e+00 2.2608515834282178e-01  -1.0167735326335410e+00 1.9018102164485559e-01 -3.3770583924288408e-05  9.1274290409464875e-01 1.0986318409189364e+00 4.5447175060899431e-01  4.0841314945685475e-01 2.1067049255457368e-01 9.2969919014502822e-01  -1.0261956185982450e+00 2.0935167123871659e+00 -3.1336934654704509e-05  8.4250422024342231e-01 4.7509567114800005e-01 5.6895719666595224e-01  9.9887328124972175e-01 4.5979753956629926e-01 1.9562735351583305e-01  9.1144628772114200e-01 7.2901550318639574e-01 4.5330739962613714e-01  3.6737790943276838e-01 1.2871002679493029e+00 9.4116700013946664e-01  8.5243169279707554e-01 1.7990071593513719e+00 5.6566621230132430e-01  -1.7265721933858620e-03 1.0438034372203180e+00 1.0102399629033654e+00  1.0007088946649583e+00 1.1842038359275431e+00 2.0609727618398857e-01  -1.0004726046121446e+00 4.7551889341633047e-01 1.8771290248928871e-01  5.9292639522571591e-02 6.8864597746048239e-01 1.0113097889641673e+00  -9.4225236967861614e-01 4.9912612720376703e-01 3.8395263334099133e-01  -5.8091483476470152e-01 1.0817845726060900e+00 8.3136173862809293e-01  -8.8059086442806689e-01 2.0299609700513828e+00 5.2602003571627520e-01  -1.0264973395654986e+00 2.8555103559169659e+00 -3.1335622180911606e-05  7.4206671765476906e-01 1.0116702148434911e+00 6.9470280154944064e-01  7.2351913044073413e-01 2.8480711562115819e+00 7.3589983763113487e-01  -5.1124971102312677e-01 1.5209823537181275e+00 8.7334485035232834e-01  7.1242585759158472e-01 2.0630943199410887e+00 7.3123599005587481e-01  7.0300928303302346e-01 1.6659885209789855e+00 7.3596439536219294e-01  -1.9856628878424748e-01 3.0497889747109217e+00 9.2674946807193725e-01  -5.4832929971037553e-03 2.8462702795916619e+00 9.5360040026909410e-01  -1.0113190736114424e+00 2.1887712995674802e+00 1.7740411949992524e-01  9.9647850032709961e-01 -1.7137059943642452e-07 1.9821026194318442e-01  8.6643057825169700e-01 3.0461662474697735e+00 5.6873679199452432e-01  1.9820917574775290e-01 2.0265287836572433e-07 9.9648102443784292e-01  -1.9821732335374684e-01 1.1533720264800036e-07 9.9647835051342148e-01  5.6445653963633269e-01 4.1998906964279381e-08 8.4477611204143899e-01  1.9853678063914837e-01 3.0497748748088354e+00 9.2680490180964770e-01  8.4477415939842815e-01 -4.0634699409614667e-09 5.6445995947524685e-01  1.0084982525610473e+00 3.0459994322643276e+00 1.9845170790993580e-01  -5.8270172119246855e-01 3.0479367799313088e+00 8.4355228575956298e-01  -5.6446150147284946e-01 2.4493164368848493e-08 8.4477140932210537e-01  -6.9741758206576132e-02 2.4755475054969875e+00 9.7897530262200927e-01  9.4735260349557071e-01 2.8361238128661270e+00 4.0815557284677295e-01  5.6941235030243775e-01 2.5970318584702241e+00 8.4367880832509645e-01  7.1789014857404343e-01 2.4549179454616850e+00 7.3248631972936640e-01  8.5115617859691961e-01 2.6453917619683116e+00 5.8345319154223396e-01  3.6610837674445895e-01 1.6891117794219490e+00 9.3824242437711314e-01  -8.0928005710715956e-01 2.8772925934701261e+00 6.4458200452373893e-01  -3.3084315227833766e-01 1.8762879089524953e-01 9.6006092655986919e-01  -1.0099302677261346e+00 2.5757033819881152e+00 1.8962745813929610e-01  -8.8581364186739031e-01 1.6468550752873958e+00 5.1085758338145115e-01  -1.0019966098787614e+00 1.5444106644924542e+00 2.1044322267140045e-01  -1.0249329825805258e+00 1.7125942023255711e+00 -3.5033533828864619e-05  -7.6688927990909039e-01 1.6477129506964163e+00 6.7187847679955826e-01  -5.6363700279792428e-01 3.9017057153835938e-01 8.4448868054709469e-01  1.0264982112514889e+00 2.8555110798824592e+00 -2.0971033468754369e-05  -1.0206798169729501e+00 9.5111791041028793e-01 -1.7793715191930374e-05  1.0167734994899322e+00 1.9018066847886100e-01 -2.9395696952197014e-05  1.0249358998642590e+00 1.7125937105868361e+00 -2.1250390199108587e-05  1.0206859052299599e+00 9.5111730246439363e-01 -5.0271732636331031e-05  -1.0229650350882002e+00 1.3317874906403950e+00 -3.2525839165880933e-05  1.0266315810203306e+00 2.4745071597092370e+00 -1.6626932823736637e-05  -1.0266173279524318e+00 2.4745076635975232e+00 -1.9093658023619942e-05  7.3634259380949141e-01 2.8742707599967665e-01 6.9998671927407874e-01  -9.3550381409689942e-01 1.8801743151673962e+00 4.1949091465486504e-01  -7.7230522024612946e-01 6.3590163916660236e-01 6.6061302600948835e-01  -3.2139524198540065e-01 1.2093537286510967e+00 9.5785265354105475e-01  -7.2199520882303725e-01 1.9036331174871499e+00 7.2043079105676311e-01  -4.6453348449938964e-01 1.7707657085888493e+00 8.9651660926156940e-01  -6.4106149407074842e-01 2.4955680770433548e+00 7.9575307379529503e-01  5.1973856207537938e-01 8.9516615007049183e-01 8.7058774450804488e-01  1.8785684083302384e-01 2.3458674555576313e+00 9.7198763109885256e-01  5.3929368185991144e-01 1.8860755804414251e+00 8.5679088268304804e-01  9.5650440034483430e-01 2.4589925203634846e+00 3.8003112899996588e-01  1.0098509656195602e+00 2.2588875391534309e+00 1.8689172790757197e-01  1.0082167507139366e+00 1.8991731325670012e+00 1.8876451844187936e-01  -2.2820480557688103e-01 1.0513533887284763e+00 9.8474150480866107e-01  6.8666882379416505e-01 1.2463181971983808e+00 7.4881350026255122e-01  5.5594319971760930e-01 1.5170598700733713e+00 8.4699066671534895e-01  -2.0501278086791516e-01 4.3553623365061561e-01 9.9352235801609001e-01  -9.4653056675953084e-01 1.5216998185504331e+00 3.8768154684814599e-01  -9.4153223308796019e-01 2.3170979507330318e+00 4.1407885054607413e-01  -1.0058660122848400e+00 6.5376868458902515e-01 1.6189065257103843e-01  4.2527396663527277e-02 2.1116907790035850e+00 9.9175409410735726e-01  5.6747778569432517e-01 4.3458249883902639e-01 8.4183434441837801e-01  2.3856074895903751e-01 4.1091846972955948e-01 9.8614064097571164e-01  1.0001816178583243e+00 2.6557354149430847e+00 2.3854588677492514e-01  8.3421468796544196e-01 2.2736776915108270e+00 5.9965277295187103e-01  -6.1567494413266266e-01 2.6689908199895167e+00 8.1640132061734372e-01  -5.8224931531566104e-01 1.9047130843361910e+00 8.3049947118073664e-01  9.4297045198162899e-01 2.0774164340061141e+00 4.0637870614290711e-01  -4.7225026255017675e-03 1.3499047174721766e+00 1.0068300429172630e+00  3.6968304866423857e-01 2.3973732797512981e+00 9.2980446515697435e-01  3.8405087482440903e-01 2.0573823319221489e+00 9.2824930682401696e-01  1.8678971676501167e-02 1.7912044230226801e-01 1.0152241777012250e+00  -8.4776207688168537e-01 2.6145876774867762e+00 5.8771492607053577e-01  1.8031096163204904e-01 1.8738099648699822e+00 9.8366444681408594e-01  3.6791014807265365e-01 2.7472341497050303e+00 9.2670709599056111e-01  -3.1390122367453016e-01 5.6798206802365936e-01 9.6429361905308797e-01  -4.8120142305757724e-01 5.6523995748568856e-01 8.9327111447950447e-01  6.1896255021273480e-02 2.6894419996369234e+00 9.6830514943670143e-01  -1.8243515911811739e-01 2.3406600935199049e+00 9.7293738795394313e-01  -8.8969410010641803e-01 6.3802646915124384e-01 4.9350372084709077e-01  -9.5222565830269079e-01 8.6657482846262113e-01 3.6310665492338878e-01  -4.1641745983969092e-01 2.4137529413293630e+00 9.1377173425984770e-01  -3.3520250561977177e-01 2.0953698037865180e+00 9.4407367525775343e-01  -1.0068091324359765e+00 2.8528980642229340e-01 1.4489019714057538e-01  7.8549043142679953e-01 1.3623816421531948e-01 6.4449918459701794e-01  -6.4129255016175535e-01 1.3895104000965960e-01 7.8787233370286658e-01  -1.0111568736562278e+00 1.7745882858087625e+00 1.6885338259792865e-01  1.0071758122557217e+00 1.3609131716070089e+00 1.7853069682810377e-01  -4.8810300877530099e-01 8.7075940498815907e-01 8.8849412794282823e-01  -5.8185286617837884e-01 7.3250000848677121e-01 8.3141988548553714e-01  7.6609894876741068e-03 1.7629693435931553e+00 1.0003430799089099e+00  -9.7266976194663579e-01 1.4022843451021610e-01 2.9497209811607167e-01  -6.9432913579510913e-01 2.8460317631508851e+00 7.6156421337611913e-01  1.0108272788536756e+00 8.5600578495791191e-01 1.3624184587710558e-01  -1.7905501640220334e-01 1.9299275513678775e+00 9.8283463751429545e-01  6.7052486258339472e-01 6.3462732066322580e-01 7.6268254090171395e-01  -9.0636906206648016e-01 3.5736199105149175e-01 4.6088094736288504e-01  2.3553778331211855e-01 2.6513595499582565e+00 9.5578762148834084e-01  8.0543992081348614e-01 1.5815115834149096e+00 6.2613087809514367e-01  4.8794894441969078e-01 1.1895767329877522e+00 8.8727947741638924e-01  -3.4343287969771547e-01 2.6446321009816165e+00 9.3457717022420062e-01  8.0300614301614948e-01 1.9641156246651454e+00 6.3416530257997217e-01  9.2942769758175814e-01 1.7474971758375086e+00 4.3021394308544336e-01  -7.3461194352453396e-01 4.5706741805650009e-01 7.0177942620211198e-01  2.1191514462252695e-01 7.4592733095006825e-01 9.9051813177838177e-01  -6.4005976673445053e-01 2.1860723396115800e+00 7.9232740243527089e-01  -5.9191284394396271e-01 1.2426680131324277e+00 8.2355588737312135e-01  -7.0600407645585816e-01 1.0334758063682186e+00 7.3063542891569144e-01  -7.6024810751861416e-01 1.3449417040038523e+00 6.7673905035345272e-01  9.2544348306225943e-01 9.4185783979228410e-01 4.2665291096049346e-01  -9.4865935522027411e-01 1.1857943760694811e+00 3.7685242467966140e-01  8.9626171253009213e-01 1.2574229690753116e-01 4.7896232111354992e-01  9.1094787920596698e-01 3.8601743885491813e-01 4.5198034449120628e-01  -6.3555646105129893e-01 1.5838486699739966e+00 7.9193626534081163e-01  9.2769365266122417e-01 1.4503547631940612e+00 4.2884961176836883e-01  -8.7495564450167729e-01 2.39541770688057