<?xml version="1.0"?>
<VTKFile type="UnstructuredGrid"  version="0.1"  >
<UnstructuredGrid>
<Piece  NumberOfPoints="758" NumberOfCells="1386">
<Points>
<DataArray  type="Float64"  NumberOfComponents="3"  format="ascii">-1.570796326794897 3.048 0  -1.570796326794897 0 0  1.570796326794897 0 0  1.570796326794897 3.048 0  0 0 0  0 3.048 0  -1.570796326794897 1.524 0  1.570796326794897 1.524 0  -0.04609926118424437 1.524 0  0.7853981633974483 0 0  0.7623485328053261 2.262242601661362 0  -0.7853981633974483 0 0  -0.7853981633974483 3.048 0  0.392699081698724 0.7745759241961347 0  -1.570796326794897 0.762 0  -0.8084477939895706 2.0955 0  -0.68277245543452 0.8915343570675713 0  0.7853981633974483 3.048 0  0.778743707341909 1.468410948960538 0  2.780093748954961e-16 2.285302774973185 0  -1.570796326794897 2.286 0  1.570796326794897 0.762 0  1.570796326794897 2.286 0  -0.9375370967763674 1.47348297960658 0  0.9831575747762593 0.9003629142671278 0  -0.3926990816987241 0.4064697549061488 0  1.177419588818055 1.905 0  0.3692901340097942 1.880893989147954 0  -0.4920225169641509 2.564371687128368 0  0.3926990816987241 3.048 0  1.178097245096172 0 0  1.155705348811136 2.643920532523289 0  -1.178097245096172 3.048 0  -1.178097245096172 0 0  -0.1391296372266528 0.8873724190154949 0  -1.10527745318919 2.528282743051346 0  -0.9817477042468103 0.4742759268549471 0  -0.3416666987802651 1.923944646262223 0  -1.570796326794897 1.905 0  -1.156555306160469 1.030861936336814 0  0.7648449098493205 0.4764142032227 0  0.3926990816987241 0 0  -0.4820376416180818 1.326151321396512 0  0.06374421723344185 0.4545169930886408 0  0.1972735722393064 1.163324878565267 0  0.3900417218314142 2.566922767651637 0  1.570796326794897 0.381 0  1.188877612935585 1.295195418509834 0  1.179914028402171 0.5308585702661928 0  0.7660075594126428 1.865233039449035 0  0.6330293131838399 1.095171663968746 0  -1.201232463242587 2.144287146570887 0  -0.3926990816987241 0 0  -0.3926990816987241 3.048 0  1.178097245096172 3.048 0  0.7684409382397209 2.649499271873753 0  -1.236954997304436 1.7145 0  -0.1088573452899617 2.666651387486592 0  -1.570796326794897 1.143 0  -1.570796326794897 0.381 0  1.570796326794897 1.143 0  1.570796326794897 1.905 0  1.570796326794897 2.667 0  -1.570796326794897 2.667 0  -0.6730839067294777 1.743003792473746 0  1.199831389396789 2.275437921225198 0  0.3936837537618041 1.495643752599615 0  0.01539369169800942 1.928544709491661 0  0.4156551272669651 0.4219033286010089 0  0.3401546043708642 2.225103550856524 0  -0.3379897306391274 2.262671266279809 0  -1.23624174049596 0.7000907110925838 0  -1.265224057170889 1.360131453617764 0  -0.1224339018241312 1.210043725539656 0  1.289286200625578 0.9918698881707442 0  -0.7751142346211329 1.197848666814478 0  1.003546186550495 0.2660297686099683 0  0.1963495408493621 2.808538634159524 0  -0.8079023568959116 2.703551618159924 0  -0.3480226984353056 1.610059855391589 0  1.075147893506229 1.598068412087719 0  -0.8290627893979112 2.399544545867518 0  0.6965048925255637 0.7972100472372819 0  -1.257765094876752 0.3107645483825858 0  -0.6724835324263325 0.5684215760013651 0  -0.3995059642389676 0.7173610149075536 0  0.9136951972244611 1.187564504803626 0  -0.964259350608907 0.8095514380783081 0  -0.7565990314517038 0.2897049735129544 0  -0.9603859887840651 1.834914433810327 0  -0.1457055965762301 0.2521630699436873 0  0.1963495408493621 0.2041911848053476 0  0.6241974196550791 0.231695999252114 0  -0.4098815011312292 1.029160072548571 0  0.9592800715482012 2.452820690856482 0  0.9648684169153161 2.840751931000357 0  0.5890486225480862 3.048 0  0.164631037784102 1.698913854044779 0  0.5664480837073581 2.070920238540226 0  1.374107957806476 1.7145 0  0.9861079629544779 2.102471438422718 0  -1.374446785945534 3.048 0  -1.288827800789186 2.762781313597598 0  1.353232957571468 2.835634774483438 0  1.302158670506274 0.2650078124691045 0  0.1394669809465775 0.8907702620243092 0  -0.5631487221059602 2.830992231257464 0  1.372837635547072 2.483038902756259 0  -0.1493395228831287 0.618617259260858 0  -1.32327048447753 2.378769394323546 0  0.56080204725298 1.699622905297025 0  1.570796326794897 2.0955 0  0.5403456747786348 2.786446773498672 0  -0.9817477042468103 0 0  -0.5847039960246873 2.326882432521036 0  0.1225428891326576 2.526494255738436 0  -0.9817477042468103 3.048 0  -0.5522901559753841 2.071668786267058 0  -1.370864794258017 0.9075071715671403 0  -1.043891045637083 1.250611220450313 0  -0.1652643923634778 2.09141301924679 0  -1.044446740946883 2.764982067459552 0  -0.1610370079820225 1.763280243096074 0  -0.3136912237752232 2.810498886211121 0  0.5400974078002052 2.370472734822523 0  -0.7009161718414544 1.427243880175582 0  0.902907438200502 0.6735032943420574 0  -0.9879196222361604 0.2371379634274736 0  1.319268546233604 0.7412771512308228 0  0.5578373583610097 0.608241627784878 0  0.5756483102040615 1.332636919938113 0  -0.5281701577409 0.2032348774530744 0  -0.266729509930448 2.489223923247521 0  -1.570796326794897 0.5715 0  -0.2430656531629531 1.405631921096758 0  0.253622337931223 0.5884397663452474 0  1.284044721043478 1.50372037617638 0  1.570796326794897 1.3335 0  -0.9904333867980613 2.235882060371517 0  0.9871146764618406 1.395690276854986 0  -1.374446785945534 0 0  0.3981951765262902 1.020833864419675 0  0.1670583512016766 1.405384478716078 0  -1.330327693484763 1.938638984813805 0  0.2106653067452682 2.040805097078886 0  1.570796326794897 0.5715 0  1.334822181490566 2.081373939821734 0  -0.9303227889097604 1.033236710715967 0  -1.34639228476592 1.150776798768373 0  -1.570796326794897 0.1905 0  1.106697207481837 1.099709897393925 0  0.4137866939027022 0.2104288000383385 0  -1.570796326794897 2.0955 0  0.9761377489246634 0.4754251272674608 0  1.377108465632662 0.4605024587280874 0  1.108114944719677 0.7297638044096917 0  0.3695908229138113 1.285681859811955 0  0.9799112840676307 1.800306505551499 0  -0.001696842075803034 1.042028929293442 0  1.366537356420357 1.185723700290463 0  -1.385029840108318 0.47625 0  0.05842649915411911 0.6874537157920781 0  -1.183268988745763 0.4997334438341218 0  -0.6073502281622543 1.081347079085406 0  -1.026941765261019 2.031536576622642 0  -1.570796326794897 2.8575 0  0.8159726599830506 1.011928543199529 0  0.7652782693277244 2.849245002237192 0  -0.5252326280373281 1.520125074885265 0  0.7648326174724897 2.063743853392348 0  0.757099741434616 1.666331708950521 0  -0.1963495408493621 3.048 0  -0.005410422648647092 2.843333256403111 0  -1.395368347654653 2.19075 0  1.374446785945534 0 0  0.9817477042468103 3.048 0  0.1963495408493621 0 0  -0.1963495408493621 0 0  0.5890486225480862 0 0  0.1963495408493621 3.048 0  0.9817477042468103 0 0  1.374446785945534 3.048 0  -0.5890486225480862 3.048 0  -0.5890486225480862 0 0  -0.06865319188571758 2.471928549109083 0  1.159049337209348 2.838090892449816 0  0.5817075150535711 2.596909954318943 0  0.7656515661107315 2.455866896253367 0  0.9620790410056582 2.647119292933887 0  0.3676829480103987 1.68739481709134 0  -0.8886101495223063 2.878912500124773 0  -0.3317793704126089 0.1873756770788371 0  -1.383208664444332 2.577695923010364 0  -1.043597917648523 1.648216005744782 0  -1.362178343413552 1.546177620526679 0  -1.570796326794897 1.7145 0  -0.8462722504471433 1.648434957877788 0  -0.588076822054871 0.3899352838051667 0  1.570796326794897 2.8575 0  -1.570796326794897 0.9525 0  1.570796326794897 0.1905 0  1.570796326794897 1.7145 0  1.570796326794897 0.9525 0  -1.570796326794897 1.3335 0  1.570796326794897 2.4765 0  -1.570796326794897 2.4765 0  0.8103777117362174 0.287468585434799 0  -1.145334531235929 1.881885620422454 0  -0.8620560674467429 0.6361265362229395 0  -0.321688879263093 1.207848147265888 0  -0.7798551871678058 1.904240998338365 0  -0.4724954359209014 1.769587110195458 0  -0.667402576232105 2.495985359319255 0  0.5365063314111709 0.8945566719544227 0  0.1855702280441107 2.342745654422604 0  0.55510120733165 1.88540118775351 0  1.188295809121239 2.460939894898248 0  1.38587897409014 2.260870763688798 0  1.383978812419919 1.901097375082534 0  -0.2265735189171196 1.049795314962436 0  0.7387890113368257 1.246392780742437 0  0.5763234466275948 1.516457524623135 0  -0.203279258075353 0.4348372558382012 0  -1.179202350299698 1.523245956950107 0  -1.151844216720993 2.318990544544152 0  -1.410806081599612 0.6547540757597369 0  0.04190096621848406 2.108399609871347 0  0.5925649981629265 0.4343292987553075 0  0.2371113691258682 0.4102816185532077 0  1.334103818253725 2.657728219912091 0  0.9405077369493808 2.275181409651143 0  -0.633962040105568 2.669303984283053 0  -0.6045614816381242 1.904349918307267 0  1.159697673803787 2.079238591118184 0  -0.004643801590645341 1.347662554528907 0  0.3691400131247499 2.395423267764724 0  0.3855005143298051 2.055603978165229 0  0.01839821075864462 0.1788084577298442 0  -0.9568120219060965 2.61629404172056 0  0.1783135820912846 1.871116340262054 0  0.3649950158263953 2.745288921627024 0  -0.3142054567155264 0.5671999812317062 0  -0.4933549623779417 0.564740705097546 0  0.06092775470575962 2.685867440722903 0  -0.1801827362748675 2.337517890002858 0  -1.063355415037434 0.6386189748554 0  -1.205242865599393 0.8676070232612285 0  -0.4176020549597784 2.412196127179313 0  -0.3347051678178828 2.093252344225509 0  -1.427772711006951 0.2857500000000001 0  0.8835729338221293 0.1362887052191026 0  -0.6831011505337878 0.1389086130988801 0  -1.403875662049666 1.77648180985222 0  1.394165436236593 1.362588987767805 0  -0.5007942298153729 0.8700626692351643 0  -0.6093220848169366 0.7321530406295067 0  0.007534593095922887 1.760126887057542 0  -1.276272015520854 0.140425968067263 0  -0.7270478511000733 2.847016806985676 0  1.436331331726002 0.85725 0  -0.1770320080670663 1.927167796173981 0  0.7200726153501196 0.6345534912379586 0  -1.099983122078282 0.3577316115390257 0  0.2324759135153202 2.648405702327079 0  0.9054371869972004 1.582409569434113 0  0.5000672234640285 1.188708149930449 0  -0.340793734207542
[...]
<PointData  Vectors="phi"> 
<DataArray  type="Float64"  Name="phi"  NumberOfComponents="3" format="ascii">-1.2139569871013640e+00 3.0329193421451737e+00 5.2314887370860533e-04  -1.0160105433929703e+00 1.1056961709070001e-07 -9.5442871959944375e-06  1.0160106499499550e+00 8.8401937839759167e-08 -1.1369070734680912e-05  1.2142345905605858e+00 3.0328620770322590e+00 4.3285618878599461e-04  -6.4899581734268168e-06 1.1337882279127238e-06 1.0160216295109488e+00  -1.0349239692933627e-03 2.4915546651869471e+00 -5.7661706506386690e-01  -1.0789796357344810e+00 1.5102885082544579e+00 -1.6922168924951960e-05  1.0795557164395218e+00 1.5101848774491200e+00 -2.6346427620853137e-05  -4.7049845169384721e-02 1.3098535253859849e+00 3.9114955191866119e-01  7.1842688336840010e-01 -2.1033510469292337e-07 7.1841643542014133e-01  5.9986446581811748e-01 2.1637019731583687e+00 2.9012498648160251e-01  -7.1842399632839671e-01 2.2066235638475279e-07 7.1841830263331319e-01  -5.8896174382056099e-01 2.8169365311465775e+00 -1.4566717624394329e-01  3.9351331022356628e-01 7.7653161213477961e-01 9.0510314611300080e-01  -1.0227016240668856e+00 7.5617924646898305e-01 -2.1946929471735960e-05  -6.5559003433939733e-01 2.0382362203514579e+00 3.9715202978510777e-01  -6.6503284138045304e-01 8.9479456799056667e-01 7.8909312724250991e-01  5.8835826816899472e-01 2.8162026165195222e+00 -1.4766860508380997e-01  7.1085429184917392e-01 1.4647064184789169e+00 6.4507309359931264e-01  -7.3808694573468544e-04 1.9092860929623690e+00 -8.1078985670454379e-02  -1.1815925825427602e+00 2.2665088199550287e+00 4.5868915299145872e-05  1.0227535797516587e+00 7.5615170129646181e-01 -3.0593117132878243e-05  1.1823710015100521e+00 2.2663376897153635e+00 -7.4633849142339100e-05  -8.5766747658361076e-01 1.4741616250861911e+00 5.8269510339716557e-01  8.7509315764689855e-01 8.9814977929618356e-01 5.7048953432662219e-01  -3.9362079751312501e-01 4.0869430560854297e-01 9.3417017446841200e-01  1.0165556463211869e+00 1.8973266626092529e+00 3.7304161316146933e-01  3.3051860839645131e-01 1.6833278624049264e+00 2.8818771720906927e-01  -4.0551552048416478e-01 2.2886716550962638e+00 -4.4483570841373617e-02  3.2858991430810036e-01 2.6326070580820704e+00 -3.9223871163624063e-01  9.3865779891364665e-01 -4.1789914872443571e-07 3.8880538030226325e-01  9.1436451802706220e-01 2.6104122451741874e+00 2.3151223304420460e-01  -8.8473832208606928e-01 2.9791508727777356e+00 7.1324706917837474e-02  -9.3865740370260853e-01 -1.4250955934821049e-07 3.8881448647477268e-01  -1.3845710701551978e-01 8.4265303274112813e-01 8.2494442767339138e-01  -8.8159205411516273e-01 2.4956310571114879e+00 2.7190491278258283e-01  -8.5485453836574377e-01 4.7260072578056866e-01 5.6774029391037151e-01  -3.1044886636464214e-01 1.7061863277763771e+00 2.4784322301030476e-01  -1.1344410356685928e+00 1.8867689258108957e+00 -2.6460970204528100e-05  -9.6141265524094988e-01 1.0255376374383565e+00 4.1349341059961303e-01  7.1484161154936510e-01 4.7649850793211296e-01 7.3717701891682863e-01  3.8881409866934208e-01 1.2618614885663347e-06 9.3866824741348198e-01  -4.3963486082835912e-01 1.2790037198460873e+00 6.6783156166687818e-01  6.5194926252741328e-02 4.5664368670864725e-01 9.9251587046883361e-01  1.9308860628310698e-01 1.0594007546728876e+00 6.5467685220776606e-01  3.3696931362223437e-01 2.2429707173039422e+00 -1.0990113125663079e-01  1.0195432220371208e+00 3.7814074198759512e-01 -1.9538718460888457e-05  9.9463233940065343e-01 1.2880503291394292e+00 3.8301586513437685e-01  9.4804542392127078e-01 5.2773919170583061e-01 3.8896472352181644e-01  6.4410574158160439e-01 1.8248477649251931e+00 4.9175827235896102e-01  6.0919442160550807e-01 1.0970609978306125e+00 7.7844893794182679e-01  -1.0215702200494285e+00 2.1344301405452772e+00 3.3303676721725556e-01  -3.8880214057685419e-01 -3.0528564777631082e-07 9.3865879787803663e-01  -3.3005271066362879e-01 2.6331570466660583e+00 -3.9096996972124243e-01  8.8434307837676884e-01 2.9784981800831436e+00 6.9076327852291897e-02  5.8366247098881785e-01 2.4861090899231435e+00 7.5975096336994202e-02  -1.0454142998069271e+00 1.7046293359998552e+00 3.3181038527323842e-01  -1.0926013674251932e-01 2.2214524332485475e+00 -3.0122362285299997e-01  -1.0366538535093015e+00 1.1339898519390390e+00 -2.3152289800013188e-05  -1.0195467212308695e+00 3.7815379686549400e-01 -2.4619207172290285e-05  1.0368630337744369e+00 1.1339397724019247e+00 -1.3118996259080431e-05  1.1351814450857862e+00 1.8866173363275069e+00 -4.9517674802388955e-05  1.2094472832667074e+00 2.6494211884643208e+00 -7.8396463088514502e-05  -1.2084754386955665e+00 2.6495717689653819e+00 3.7801278965834048e-05  -5.7307185666006866e-01 1.6921026698866148e+00 5.2275519666211245e-01  1.0082245615788670e+00 2.2635385595596809e+00 3.1493898489094546e-01  3.5648138027353499e-01 1.3859251715742766e+00 5.3166588781745949e-01  1.4989776328423068e-02 1.6266449179607188e+00 1.3757800308698481e-01  4.1573222969903068e-01 4.2415400892476612e-01 9.2577446355259696e-01  3.0632329544211634e-01 1.9457843545555775e+00 6.4744487675715584e-02  -3.0558384905228525e-01 1.9752439233174957e+00 4.1810728310344089e-02  -9.7122180552116111e-01 6.9571412769528373e-01 3.3536092329326667e-01  -1.0229938392080151e+00 1.3510674278202202e+00 3.0852334068815646e-01  -1.2266099825900210e-01 1.0777092071964112e+00 6.0418934807683244e-01  9.9754055409810105e-01 9.8524962814126493e-01 2.8404069516887759e-01  -7.3565355100430441e-01 1.2010128157085622e+00 7.0831055909303464e-01  8.6160977280318418e-01 2.6490374842471043e-01 5.4765432833206573e-01  1.8466201899459520e-01 2.3592679343197989e+00 -3.5602639773179440e-01  -6.1026230304083240e-01 2.5481648116096078e+00 6.9622899651255593e-02  -3.1854523214008673e-01 1.4592495406858479e+00 4.4094123838388655e-01  9.5537842563023789e-01 1.5946936890381085e+00 4.7561872545574019e-01  -6.4314527923073239e-01 2.3048496832105800e+00 2.5037540961650107e-01  6.7481473005769199e-01 7.9954391028335126e-01 7.8442487926479609e-01  -9.7082571020595787e-01 3.0873038572505490e-01 3.1378725533607771e-01  -6.4698707184477267e-01 5.6966380856493493e-01 7.9927316022140560e-01  -4.0270457062714787e-01 7.2052465675160438e-01 9.1639870318750583e-01  8.4691780956721752e-01 1.1880707004442466e+00 6.2361276351162886e-01  -8.5921986488946023e-01 8.0762168404005685e-01 5.8580124285776547e-01  -7.0316203600766303e-01 2.8960188715902796e-01 7.4108011335565616e-01  -8.4059938187168393e-01 1.8283479059446988e+00 5.0305650696731641e-01  -1.4791714260389813e-01 2.5393769399548216e-01 9.9489518893904016e-01  1.9866526531604414e-01 2.0567382486096117e-01 9.8938363797755879e-01  5.9765992242893251e-01 2.3213128244293788e-01 8.2546836119449829e-01  -3.9333542257768506e-01 1.0104859499441181e+00 8.0372841584020627e-01  7.5066517736102822e-01 2.3934627608724832e+00 2.7377293944306474e-01  7.2230644683185852e-01 2.7252814233345628e+00 7.5543851819521515e-02  4.5990008456316722e-01 2.7238793319402093e+00 -2.7077314089074095e-01  1.6149511889962906e-01 1.4669301231438718e+00 3.0673583647942321e-01  4.6544710960009872e-01 1.9234876425913932e+00 2.9002445935705373e-01  1.0882916742780329e+00 1.7002064318078309e+00 1.9905887757544866e-01  8.2638792209092793e-01 2.0835992605031732e+00 4.1921784025426562e-01  -1.0749319354228930e+00 3.0248097525353801e+00 1.1754072185880987e-01  -1.0305471320196038e+00 2.7404993263847119e+00 1.9035733479979214e-01  1.0830646932168428e+00 2.8160112745302599e+00 1.5839034880928640e-01  9.8295291014008945e-01 2.6320732699644384e-01 2.7035815709065403e-01  1.3840420532613715e-01 8.4514478928331083e-01 8.2247674235087853e-01  -4.4480036867789502e-01 2.5386094496535878e+00 -1.5572927260943947e-01  1.1298048873229920e+00 2.4676441879438715e+00 1.8376822943342455e-01  -1.5223594619629785e-01 6.1911889426101308e-01 9.6613762728334607e-01  -1.0995729366183995e+00 2.3646037078056779e+00 2.2758751330291815e-01  4.8040889241673562e-01 1.6165558314863895e+00 4.9717150593056125e-01  1.1608112032688562e+00 2.0760324897423317e+00 -2.1504957182778320e-05  4.2999125939207428e-01 2.4912740833491318e+00 -1.4533858025313820e-01  -8.4477549435308108e-01 6.9566150495167947e-08 5.6446288884140405e-01  -4.7022108691917258e-01 2.1401147251489161e+00 1.5336184583133666e-01  1.2087256418583181e-01 2.1133114481512094e+00 -2.1195510936063586e-01  -7.2582010605305358e-01 2.9047931454921438e+00 -2.7919263488292979e-02  -4.5614283765409985e-01 1.9180877539128540e+00 2.8240874654593945e-01  -1.0094334614042930e+00 9.0099545477301246e-01 2.0250652153809937e-01  -9.2881222438543865e-01 1.2474592705682002e+00 5.1679279546400125e-01  -1.6295844301440318e-01 1.7778128420549981e+00 6.6325439919867502e-02  -7.9437211847729861e-01 2.6902994342177751e+00 1.5403312385289802e-01  -1.5911153632153627e-01 1.5167694990416072e+00 2.6606210401756547e-01  -2.7758934638783572e-01 2.4076372903703556e+00 -2.9584394085311905e-01  4.3950158951754703e-01 2.1540992813496564e+00 9.8675192404540230e-02  -6.3868949144134313e-01 1.4175075751758979e+00 6.6636004903082924e-01  8.1628547075255209e-01 6.7238122791445365e-01 6.3512340394664990e-01  -8.5233596259376510e-01 2.3617563875532074e-01 5.6077864568000424e-01  9.9439946981561089e-01 7.3616654272264126e-01 2.5390370676993196e-01  5.5123471733393359e-01 6.1078161549220300e-01 8.6361593014384119e-01  5.2592963650124047e-01 1.3092842392815975e+00 6.9120127239527751e-01  -5.1474717358842825e-01 2.0393460718717640e-01 8.7750780944688789e-01  -2.4894867047959857e-01 2.1283505236532525e+00 -1.3146632997170443e-01  -1.0206168363171058e+00 5.6717460760347804e-01 -1.5281548259449337e-05  -2.3357890764276179e-01 1.2601704673583745e+00 5.1826929539615341e-01  2.5842504926688725e-01 5.9090737939390237e-01 9.6180666957419425e-01  1.0434076357000663e+00 1.4931461155668810e+00 2.8948592590756422e-01  1.0547543662525181e+00 1.3223018816000955e+00 -1.5519698982789494e-05  -8.1082671932383710e-01 2.2075015011574388e+00 3.7349418866984957e-01  8.9814646869319059e-01 1.3950301950262647e+00 5.5687880179886373e-01  -9.9647504470244186e-01 -6.1190553520884326e-07 1.9820662411460033e-01  3.8219109287710018e-01 1.0011453269595665e+00 8.0510749122634773e-01  1.6420769614886802e-01 1.2379461244628684e+00 4.9101276866382126e-01  -1.0968857777962191e+00 1.9247542050880007e+00 2.3943109488136891e-01  2.0262258550308626e-01 1.7505156218589888e+00 1.1354756463956622e-01  1.0206355395163329e+00 5.6715319071266879e-01 -2.7481503325914777e-05  1.1069583028069199e+00 2.0671225559419395e+00 2.3182211187732693e-01  -8.5242250374784101e-01 1.0323865201636557e+00 6.1496233097890129e-01  -1.0193822584966707e+00 1.1425073628298734e+00 2.2737624144667579e-01  -1.0180718344650066e+00 1.8911870573626818e-01 -3.3355489718271003e-05  9.4773397333973652e-01 1.0949792589717038e+00 4.6078776175239072e-01  4.1052466501121998e-01 2.1154042154958930e-01 9.2821906666378262e-01  -1.1598519956076794e+00 2.0761854591014326e+00 -2.9699435197021176e-05  8.5183978548045569e-01 4.7378477456209561e-01 5.7254719075572058e-01  1.0018785719659435e+00 4.5719097453199736e-01 1.9612861308355384e-01  9.2575885067602925e-01 7.2623512612147223e-01 4.5709198663820216e-01  3.4314049533666591e-01 1.2092076094850712e+00 6.4503381282200489e-01  8.6335859141511928e-01 1.7958016316728633e+00 5.0383864805271195e-01  -1.9760506469292242e-03 9.4015715050572857e-01 7.0207419930479509e-01  1.0257094614838833e+00 1.1769389736553006e+00 2.0718940600722202e-01  -1.0034497231679529e+00 4.7282581567523385e-01 1.8818436310566941e-01  5.8958494575506289e-02 6.8084571896074275e-01 9.4162503065994330e-01  -9.4858225578344757e-01 4.9677928298699281e-01 3.8568525721577041e-01  -5.8527801780835609e-01 1.0824977417592268e+00 7.8811807272183687e-01  -8.7787725787768167e-01 2.0209113161437906e+00 4.3403314283849509e-01  -1.2133332089389421e+00 2.8415715481856019e+00 1.5385332173307683e-04  7.7341734114624439e-01 1.0137609382840642e+00 7.0088117513217452e-01  5.7663619330365079e-01 2.6470135931710845e+00 -4.2345362178306978e-02  -4.6363454410394850e-01 1.4547949245235900e+00 5.8014685764742846e-01  6.1990100862251063e-01 1.9966040415657413e+00 3.9538887239092640e-01  6.6199722330555011e-01 1.6453652737762841e+00 5.7610560060795135e-01  -1.8371170427124159e-01 2.5485642241890671e+00 -5.0219941757601916e-01  -6.4708976242225397e-03 2.3471830718551634e+00 -4.2713884661951296e-01  -1.1375227268244137e+00 2.1744491056614645e+00 1.7370622334729455e-01  9.9647615569947301e-01 -5.7759303556204387e-07 1.9820947434354538e-01  7.2543005431742669e-01 2.9040643242564133e+00 -3.0223971517532623e-02  1.9820843423059337e-01 1.1748911099063293e-06 9.9649239679346824e-01  -1.9821638122291479e-01 -3.8141879357307809e-08 9.9648298357212550e-01  5.6445618545595611e-01 2.3645724816974057e-07 8.4477688152819252e-01  1.8177608260214867e-01 2.5482275467189481e+00 -5.0304102275574047e-01  8.4477856831968090e-01 -2.1790682540307063e-07 5.6446226972030944e-01  1.0743398985698294e+00 3.0247533632200092e+00 1.1614882250315516e-01  -4.6093604431120361e-01 2.7244983734507766e+00 -2.6916475790915567e-01  -5.6446384305598718e-01 -4.4245236614269541e-07 8.4477253835190125e-01  -7.0033295074525784e-02 2.0611119794326354e+00 -1.8987448047882147e-01  8.9110235166371132e-01 2.7866747202116016e+00 1.5514661199185112e-01  4.6104246398901522e-01 2.3571709944141657e+00 -8.1753714547310903e-03  5.8990512677411944e-01 2.3259678363357033e+00 1.8488223074585980e-01  7.3318784257850955e-01 2.5616103925861182e+00 1.7832011669700923e-01  3.3183787054492592e-01 1.5285543885974595e+00 4.0383759430631327e-01  -6.6331427067049575e-01 2.7262162750697971e+00 1.4874985368901028e-02  -3.3211949804329882e-01 1.8854869023272083e-01 9.5727731626883283e-01  -1.1329756078861313e+00 2.5621151219825431e+00 1.7116071843497496e-01  -9.3149627540290958e-01 1.6458625249305130e+00 4.9437435605185770e-01  -1.0649088380058400e+00 1.5337413379554723e+00 2.1165750407866474e-01  -1.1066854287749286e+00 1.6982514038106367e+00 -2.7099739240531926e-05  -7.5409365428096031e-01 1.6416648537300171e+00 5.8081636151305027e-01  -5.7106023660140048e-01 3.9109442710156278e-01 8.4688338893733561e-01  1.2143337857295688e+00 2.8414376633875298e+00 -2.9528129839654454e-07  -1.0270455237235063e+00 9.4515713111940070e-01 -1.7215688409254349e-05  1.0180642789545253e+00 1.8911259800258531e-01 -2.9269282599570583e-05  1.1074220378123882e+00 1.6981150915030954e+00 -1.6445014887034279e-05  1.0271395319070622e+00 9.4512094187674067e-01 -4.7890351433852624e-05  -1.0543593561041897e+00 1.3223742199799895e+00 -2.9576758912391974e-05  1.1987347779167004e+00 2.4576022335975707e+00 -3.5359484433082209e-05  -1.1978110141173062e+00 2.4577543006126952e+00 5.8274851095496811e-05  7.4188003319352203e-01 2.8710046301247127e-01 7.0258530803630781e-01  -9.9508429871341753e-01 1.8755013004847487e+00 3.9920735294816023e-01  -7.8852930051869796e-01 6.3545719932769740e-01 6.6702991324407479e-01  -3.0446485367366805e-01 1.1315500553689279e+00 6.7263791570447651e-01  -6.5263030243562403e-01 1.8630834272487284e+00 4.7875541930364618e-01  -4.0926395825776951e-01 1.6384072359379704e+00 4.1248293318978879e-01  -5.1987966285710607e-01 2.3159064279765174e+00 1.0590830571059408e-01  5.2994511145741907e-01 8.9795219039833007e-01 8.4918373046636841e-01  1.7975072967358635e-01 1.9832932951157867e+00 -7.9648841803296677e-02  4.6518215041801353e-01 1.7672717337601238e+00 3.9019814914212120e-01  9.7416490983190474e-01 2.4426704761480860e+00 2.8257289475719155e-01  1.1370940346686049e+00 2.2448440046484364e+00 1.8088670774253904e-01  1.1113484213411078e+00 1.8854337676116071e+00 1.8810310582461948e-01  -2.2143651388310853e-01 9.8106365486585090e-01 7.3761934459759948e-01  6.9750043998411837e-01 1.2484437128909447e+00 7.1305495693849807e-01  5.0824803423106590e-01 1.4682105350559789e+00 6.0133024250287992e-01  -2.0710028808225411e-01 4.3727837978772488e-01 9.8031879201260597e-01  -1.0091587610973805e+00 1.5157790620433089e+00 3.8980608760765273e-01  -9.5888557602497648e-01 2.3042276306249847e+00 3.2734950861359330e-01  -1.0096653905606838e+00 6.4996312297506009e-01 1.6227933937108954e-01  4.1670492289201541e-02 1.7703964680361786e+00 2.8861926154985455e-02  5.7616763378792923e-01 4.3566527287062928e-01 8.4468539225475103e-01  2.4086178142636425e-01 4.1271043571745242e-01 9.7513985633287670e-01  1.0869791527975308e+00 2.6409224867404100e+00 1.9298631874530539e-01  7.5571343868711904e-01 2.2320582622156051e+00 3.4955448061883754e-01  -4.9361961521844877e-01 2.4411037444853987e+00 -1.6122935929107803e-02  -5.0215428773630033e-01 1.8034451488954906e+00 4.0701508860357372e-01  9.9305371885162763e-01 2.0705440055371809e+00 3.6613681116282071e-01  -5.1102060629126898e-03 1.1712723599320012e+00 5.0102603960236880e-01  3.2549168191398065e-01 2.0950708542492462e+00 -2.0703337459540637e-02  3.4052355803389328e-01 1.8298437588818508e+00 1.9227098898134204e-01  1.8693150031985024e-02 1.8020052311014637e-01 1.0075506938543226e+00  -7.3160896584684343e-01 2.5341018954032375e+00 1.9399328499435095e-01  1.7387084543673148e-01 1.6064308047282416e+00 2.0514096715129002e-01  3.1485418003354104e-01 2.3765289862694652e+00 -2.2930761355124327e-01  -3.1934184374925839e-01 5.7012299097660935e-01 9.5285878794059586e-01  -4.9180797274419868e-01 5.6742970022420525e-01 8.9400688679947515e-01  6.0512036001683943e-02 2.2282834700510210e+00 -3.2351332360274376e-01  -1.7632049863718810e-01 1.9777918325757564e+00 -7.7965021849278948e-02  -9.0206613671520364e-01 6.3583232871649598e-01 4.9731145207593147e-01  -9.6790873648335263e-01 8.6252203675851991e-01 3.6593535868891452e-01  -3.5975970943021512e-01 2.1307956536310395e+00 -8.8690978018333977e-04  -3.0416054094067518e-01 1.8383560710922509e+00 1.4196023313718292e-01  -1.0088133149610103e+00 2.8368708132587728e-01 1.4518220528453590e-01  7.8732698896168885e-01 1.3591114749097610e-01 6.4529889909370486e-01  -6.4328019838062112e-01 1.3898033546127722e-01 7.8862655894403233e-01  -1.1010837230311563e+00 1.7611791969989601e+00 1.6913353350842389e-01  1.0475813358998027e+00 1.3517267340102006e+00 1.7948663309030352e-01  -4.9634422446325449e-01 8.7304204140350827e-01 8.6367288773819850e-01  -5.9975172970355584e-01 7.3508171852075288e-01 8.3564871498729698e-01  7.0977512736637620e-03 1.4933730948317832e+00 2.4136309671472686e-01  -9.7383946533069377e-01 1.3951028915717004e-01 2.9529714989848543e-01  -5.5152158500546089e-01 2.6283104318547945e+00 -6.2615258030037452e-02  1.0170047432380989e+00 8.5083846785455997e-01 1.3653014009607098e-01  -1.7379563667319195e-01 1.6505953592390645e+00 1.7069371016942955e-01  6.8720327755334765e-01 6.3559656980569446e-01 7.6944223355113384e-01  -9.1156558300619162e-01 3.5586067135766264e-01 4.6270934214478038e-01  2.1769183085829846e-01 2.2432442781222512e+00 -2.4392208309810931e-01  8.1953574880336200e-01 1.5815181113082486e+00 5.7988623838865472e-01  4.6718655078450289e-01 1.1667613237624059e+00 7.4319506506915534e-01  -3.0211916256151583e-01 2.2826370251312671e+00 -1.8230603998457523e-01  7.5703149460710339e-01 1.9431593295180745e+00 4.6946845927927489e-01  9.9123530792778136e-01 1.7434662316697855e+00 4.1906188179560766e-01  -7.4481205208641377e-01 4.5682127245922921e-01 7.0626879842431800e-01  2.1069849731097018e-01 7.3856450571857080e-01 9.2042518815452701e-01  -5.3524627654333901e-01 2.0637723734202247e+00 2.8526718615731245e-01  -5.8044963200217314e-01 1.2356166111213189e+00 7.3464610628565352e-01  -7.3393592357516102e-01 1.0365768735780654e+00 7.3193184364452457e-01  -7.8279993634863365e-01 1.3476021617169818e+00 6.5399612442675548e-01  9.4856883293515548e-01 9.3815466298178862e-01 4.3135153341313781e-01  -9.8528121294730076e-01 1.1804930873299115e+00 3.8133820447479588e-01  8.9756300487225749e-01 1.2521516387431705e-01 4.7946177293195297e-01  9.1656685303129415e-01 3.8437066005496978e-01 4.5389465130226947e-01  -5.8953018736035900e-01 1.5529431565146636e+00 5.9813420243501070e-01  9.8532333692167640e-01 1.4458924947553928e+00 4.3187088447261723e-01  -8.0601219