<?xml version="1.0"?>
<VTKFile type="UnstructuredGrid"  version="0.1"  >
<UnstructuredGrid>
<Piece  NumberOfPoints="758" NumberOfCells="1386">
<Points>
<DataArray  type="Float64"  NumberOfComponents="3"  format="ascii">-1.570796326794897 3.048 0  -1.570796326794897 0 0  1.570796326794897 0 0  1.570796326794897 3.048 0  0 0 0  0 3.048 0  -1.570796326794897 1.524 0  1.570796326794897 1.524 0  -0.04609926118424437 1.524 0  0.7853981633974483 0 0  0.7623485328053261 2.262242601661362 0  -0.7853981633974483 0 0  -0.7853981633974483 3.048 0  0.392699081698724 0.7745759241961347 0  -1.570796326794897 0.762 0  -0.8084477939895706 2.0955 0  -0.68277245543452 0.8915343570675713 0  0.7853981633974483 3.048 0  0.778743707341909 1.468410948960538 0  2.780093748954961e-16 2.285302774973185 0  -1.570796326794897 2.286 0  1.570796326794897 0.762 0  1.570796326794897 2.286 0  -0.9375370967763674 1.47348297960658 0  0.9831575747762593 0.9003629142671278 0  -0.3926990816987241 0.4064697549061488 0  1.177419588818055 1.905 0  0.3692901340097942 1.880893989147954 0  -0.4920225169641509 2.564371687128368 0  0.3926990816987241 3.048 0  1.178097245096172 0 0  1.155705348811136 2.643920532523289 0  -1.178097245096172 3.048 0  -1.178097245096172 0 0  -0.1391296372266528 0.8873724190154949 0  -1.10527745318919 2.528282743051346 0  -0.9817477042468103 0.4742759268549471 0  -0.3416666987802651 1.923944646262223 0  -1.570796326794897 1.905 0  -1.156555306160469 1.030861936336814 0  0.7648449098493205 0.4764142032227 0  0.3926990816987241 0 0  -0.4820376416180818 1.326151321396512 0  0.06374421723344185 0.4545169930886408 0  0.1972735722393064 1.163324878565267 0  0.3900417218314142 2.566922767651637 0  1.570796326794897 0.381 0  1.188877612935585 1.295195418509834 0  1.179914028402171 0.5308585702661928 0  0.7660075594126428 1.865233039449035 0  0.6330293131838399 1.095171663968746 0  -1.201232463242587 2.144287146570887 0  -0.3926990816987241 0 0  -0.3926990816987241 3.048 0  1.178097245096172 3.048 0  0.7684409382397209 2.649499271873753 0  -1.236954997304436 1.7145 0  -0.1088573452899617 2.666651387486592 0  -1.570796326794897 1.143 0  -1.570796326794897 0.381 0  1.570796326794897 1.143 0  1.570796326794897 1.905 0  1.570796326794897 2.667 0  -1.570796326794897 2.667 0  -0.6730839067294777 1.743003792473746 0  1.199831389396789 2.275437921225198 0  0.3936837537618041 1.495643752599615 0  0.01539369169800942 1.928544709491661 0  0.4156551272669651 0.4219033286010089 0  0.3401546043708642 2.225103550856524 0  -0.3379897306391274 2.262671266279809 0  -1.23624174049596 0.7000907110925838 0  -1.265224057170889 1.360131453617764 0  -0.1224339018241312 1.210043725539656 0  1.289286200625578 0.9918698881707442 0  -0.7751142346211329 1.197848666814478 0  1.003546186550495 0.2660297686099683 0  0.1963495408493621 2.808538634159524 0  -0.8079023568959116 2.703551618159924 0  -0.3480226984353056 1.610059855391589 0  1.075147893506229 1.598068412087719 0  -0.8290627893979112 2.399544545867518 0  0.6965048925255637 0.7972100472372819 0  -1.257765094876752 0.3107645483825858 0  -0.6724835324263325 0.5684215760013651 0  -0.3995059642389676 0.7173610149075536 0  0.9136951972244611 1.187564504803626 0  -0.964259350608907 0.8095514380783081 0  -0.7565990314517038 0.2897049735129544 0  -0.9603859887840651 1.834914433810327 0  -0.1457055965762301 0.2521630699436873 0  0.1963495408493621 0.2041911848053476 0  0.6241974196550791 0.231695999252114 0  -0.4098815011312292 1.029160072548571 0  0.9592800715482012 2.452820690856482 0  0.9648684169153161 2.840751931000357 0  0.5890486225480862 3.048 0  0.164631037784102 1.698913854044779 0  0.5664480837073581 2.070920238540226 0  1.374107957806476 1.7145 0  0.9861079629544779 2.102471438422718 0  -1.374446785945534 3.048 0  -1.288827800789186 2.762781313597598 0  1.353232957571468 2.835634774483438 0  1.302158670506274 0.2650078124691045 0  0.1394669809465775 0.8907702620243092 0  -0.5631487221059602 2.830992231257464 0  1.372837635547072 2.483038902756259 0  -0.1493395228831287 0.618617259260858 0  -1.32327048447753 2.378769394323546 0  0.56080204725298 1.699622905297025 0  1.570796326794897 2.0955 0  0.5403456747786348 2.786446773498672 0  -0.9817477042468103 0 0  -0.5847039960246873 2.326882432521036 0  0.1225428891326576 2.526494255738436 0  -0.9817477042468103 3.048 0  -0.5522901559753841 2.071668786267058 0  -1.370864794258017 0.9075071715671403 0  -1.043891045637083 1.250611220450313 0  -0.1652643923634778 2.09141301924679 0  -1.044446740946883 2.764982067459552 0  -0.1610370079820225 1.763280243096074 0  -0.3136912237752232 2.810498886211121 0  0.5400974078002052 2.370472734822523 0  -0.7009161718414544 1.427243880175582 0  0.902907438200502 0.6735032943420574 0  -0.9879196222361604 0.2371379634274736 0  1.319268546233604 0.7412771512308228 0  0.5578373583610097 0.608241627784878 0  0.5756483102040615 1.332636919938113 0  -0.5281701577409 0.2032348774530744 0  -0.266729509930448 2.489223923247521 0  -1.570796326794897 0.5715 0  -0.2430656531629531 1.405631921096758 0  0.253622337931223 0.5884397663452474 0  1.284044721043478 1.50372037617638 0  1.570796326794897 1.3335 0  -0.9904333867980613 2.235882060371517 0  0.9871146764618406 1.395690276854986 0  -1.374446785945534 0 0  0.3981951765262902 1.020833864419675 0  0.1670583512016766 1.405384478716078 0  -1.330327693484763 1.938638984813805 0  0.2106653067452682 2.040805097078886 0  1.570796326794897 0.5715 0  1.334822181490566 2.081373939821734 0  -0.9303227889097604 1.033236710715967 0  -1.34639228476592 1.150776798768373 0  -1.570796326794897 0.1905 0  1.106697207481837 1.099709897393925 0  0.4137866939027022 0.2104288000383385 0  -1.570796326794897 2.0955 0  0.9761377489246634 0.4754251272674608 0  1.377108465632662 0.4605024587280874 0  1.108114944719677 0.7297638044096917 0  0.3695908229138113 1.285681859811955 0  0.9799112840676307 1.800306505551499 0  -0.001696842075803034 1.042028929293442 0  1.366537356420357 1.185723700290463 0  -1.385029840108318 0.47625 0  0.05842649915411911 0.6874537157920781 0  -1.183268988745763 0.4997334438341218 0  -0.6073502281622543 1.081347079085406 0  -1.026941765261019 2.031536576622642 0  -1.570796326794897 2.8575 0  0.8159726599830506 1.011928543199529 0  0.7652782693277244 2.849245002237192 0  -0.5252326280373281 1.520125074885265 0  0.7648326174724897 2.063743853392348 0  0.757099741434616 1.666331708950521 0  -0.1963495408493621 3.048 0  -0.005410422648647092 2.843333256403111 0  -1.395368347654653 2.19075 0  1.374446785945534 0 0  0.9817477042468103 3.048 0  0.1963495408493621 0 0  -0.1963495408493621 0 0  0.5890486225480862 0 0  0.1963495408493621 3.048 0  0.9817477042468103 0 0  1.374446785945534 3.048 0  -0.5890486225480862 3.048 0  -0.5890486225480862 0 0  -0.06865319188571758 2.471928549109083 0  1.159049337209348 2.838090892449816 0  0.5817075150535711 2.596909954318943 0  0.7656515661107315 2.455866896253367 0  0.9620790410056582 2.647119292933887 0  0.3676829480103987 1.68739481709134 0  -0.8886101495223063 2.878912500124773 0  -0.3317793704126089 0.1873756770788371 0  -1.383208664444332 2.577695923010364 0  -1.043597917648523 1.648216005744782 0  -1.362178343413552 1.546177620526679 0  -1.570796326794897 1.7145 0  -0.8462722504471433 1.648434957877788 0  -0.588076822054871 0.3899352838051667 0  1.570796326794897 2.8575 0  -1.570796326794897 0.9525 0  1.570796326794897 0.1905 0  1.570796326794897 1.7145 0  1.570796326794897 0.9525 0  -1.570796326794897 1.3335 0  1.570796326794897 2.4765 0  -1.570796326794897 2.4765 0  0.8103777117362174 0.287468585434799 0  -1.145334531235929 1.881885620422454 0  -0.8620560674467429 0.6361265362229395 0  -0.321688879263093 1.207848147265888 0  -0.7798551871678058 1.904240998338365 0  -0.4724954359209014 1.769587110195458 0  -0.667402576232105 2.495985359319255 0  0.5365063314111709 0.8945566719544227 0  0.1855702280441107 2.342745654422604 0  0.55510120733165 1.88540118775351 0  1.188295809121239 2.460939894898248 0  1.38587897409014 2.260870763688798 0  1.383978812419919 1.901097375082534 0  -0.2265735189171196 1.049795314962436 0  0.7387890113368257 1.246392780742437 0  0.5763234466275948 1.516457524623135 0  -0.203279258075353 0.4348372558382012 0  -1.179202350299698 1.523245956950107 0  -1.151844216720993 2.318990544544152 0  -1.410806081599612 0.6547540757597369 0  0.04190096621848406 2.108399609871347 0  0.5925649981629265 0.4343292987553075 0  0.2371113691258682 0.4102816185532077 0  1.334103818253725 2.657728219912091 0  0.9405077369493808 2.275181409651143 0  -0.633962040105568 2.669303984283053 0  -0.6045614816381242 1.904349918307267 0  1.159697673803787 2.079238591118184 0  -0.004643801590645341 1.347662554528907 0  0.3691400131247499 2.395423267764724 0  0.3855005143298051 2.055603978165229 0  0.01839821075864462 0.1788084577298442 0  -0.9568120219060965 2.61629404172056 0  0.1783135820912846 1.871116340262054 0  0.3649950158263953 2.745288921627024 0  -0.3142054567155264 0.5671999812317062 0  -0.4933549623779417 0.564740705097546 0  0.06092775470575962 2.685867440722903 0  -0.1801827362748675 2.337517890002858 0  -1.063355415037434 0.6386189748554 0  -1.205242865599393 0.8676070232612285 0  -0.4176020549597784 2.412196127179313 0  -0.3347051678178828 2.093252344225509 0  -1.427772711006951 0.2857500000000001 0  0.8835729338221293 0.1362887052191026 0  -0.6831011505337878 0.1389086130988801 0  -1.403875662049666 1.77648180985222 0  1.394165436236593 1.362588987767805 0  -0.5007942298153729 0.8700626692351643 0  -0.6093220848169366 0.7321530406295067 0  0.007534593095922887 1.760126887057542 0  -1.276272015520854 0.140425968067263 0  -0.7270478511000733 2.847016806985676 0  1.436331331726002 0.85725 0  -0.1770320080670663 1.927167796173981 0  0.7200726153501196 0.6345534912379586 0  -1.099983122078282 0.3577316115390257 0  0.2324759135153202 2.648405702327079 0  0.9054371869972004 1.582409569434113 0  0.5000672234640285 1.188708149930449 0  -0.340793734207542
[...]
<PointData  Vectors="phi"> 
<DataArray  type="Float64"  Name="phi"  NumberOfComponents="3" format="ascii">-1.2275655574704853e+00 3.0298500225523726e+00 4.7583626833554615e-04  -1.0160109554569323e+00 1.0626820220762799e-07 -9.4633856641939201e-06  1.0160110480081102e+00 8.1440175332635456e-08 -1.1285932065799107e-05  1.2277761419353590e+00 3.0298002784187377e+00 3.9058267868312895e-04  -6.2164196442232491e-06 8.3566047772422449e-07 1.0160208836455278e+00  -9.8059923706167560e-04 2.5031260493997753e+00 -5.4048391098009863e-01  -1.0751315831170409e+00 1.5099721583779397e+00 -1.6877788344348631e-05  1.0756369174003491e+00 1.5098800877263197e+00 -2.6011127816921464e-05  -4.7017154670391387e-02 1.3259290622718045e+00 4.3249909672627301e-01  7.1842690080054061e-01 -2.0448519009489484e-07 7.1841649994066337e-01  6.0938261710550568e-01 2.1726287776569140e+00 3.1841827047489396e-01  -7.1842395946613602e-01 8.0194703981398279e-08 7.1841835807011989e-01  -5.9516929649151062e-01 2.8258917966178014e+00 -1.1730262959793833e-01  3.9623147474274123e-01 7.7816537244990447e-01 9.1605911299543885e-01  -1.0231190071550942e+00 7.5593162598733799e-01 -2.1758168660081422e-05  -6.6705856169144995e-01 2.0456385320982342e+00 4.2252155364673399e-01  -6.6526907104192889e-01 8.9447283980661207e-01 7.9060987722605713e-01  5.9457493787434723e-01 2.8251893100299363e+00 -1.1921052919485602e-01  7.2091520346850946e-01 1.4674686282193510e+00 6.6083922024147790e-01  -6.9784635702467991e-04 1.9224568241596875e+00 -4.3252273988947640e-02  -1.1833893206925041e+00 2.2645145395933546e+00 3.6309125629430714e-05  1.0231561471225890e+00 7.5590791367089882e-01 -3.0623207046966182e-05  1.1840924936753185e+00 2.2643621284386541e+00 -7.0145799191194749e-05  -8.6363065071214196e-01 1.4740294953328903e+00 5.8904079390956332e-01  8.7368167444414735e-01 8.9784087442854266e-01 5.6997064121445251e-01  -3.9280060405132078e-01 4.0879328537334220e-01 9.3263998212707810e-01  1.0224831333269497e+00 1.8965627931046456e+00 3.7693087334331044e-01  3.3239909723977695e-01 1.6967711657120255e+00 3.2498995566622213e-01  -4.0885049403627022e-01 2.2995417280370116e+00 -1.1651915264252726e-02  3.3125395983147676e-01 2.6423373781241728e+00 -3.6031579489707327e-01  9.3865766492767866e-01 -4.2305888696058895e-07 3.8880534866945049e-01  9.2961557693300911e-01 2.6133295182932055e+00 2.4669416222165741e-01  -8.9934641403357451e-01 2.9836775634359083e+00 9.0070370967387084e-02  -9.3865733988956557e-01 -1.5799851562154730e-07 3.8881448884480707e-01  -1.3872858314167091e-01 8.6243860669305361e-01 8.6987338951662285e-01  -8.9645322067384081e-01 2.4989578173872671e+00 2.8807211714963232e-01  -8.5499417125740262e-01 4.7244076022436554e-01 5.6776938761016460e-01  -3.1186983355415682e-01 1.7196662082761887e+00 2.8485094407933964e-01  -1.1320369111386375e+00 1.8857673521386853e+00 -2.5880667904893135e-05  -9.5998292155178044e-01 1.0252223876031612e+00 4.1324874803140316e-01  7.1446481994608813e-01 4.7636882970145017e-01 7.3676923910995640e-01  3.8881392093394951e-01 1.1336811181389206e-06 9.3866804446996210e-01  -4.4579697060456369e-01 1.2901997821479581e+00 7.0067562337823908e-01  6.5035454377976254e-02 4.5728714203108978e-01 9.9190938282658492e-01  1.9360666271425489e-01 1.0771864535181452e+00 6.9725845923741037e-01  3.3906463645359081e-01 2.2542322229701703e+00 -7.5886168927656969e-02  1.0196810133720331e+00 3.7801868280072365e-01 -1.9550991918132200e-05  9.9248601442954620e-01 1.2876244094781266e+00 3.8306484633318183e-01  9.4829249649590197e-01 5.2756254814360748e-01 3.8902456292642340e-01  6.5543163426171003e-01 1.8318756384109991e+00 5.1660281031581845e-01  6.1568114293535259e-01 1.0987439669569543e+00 7.9131809782769569e-01  -1.0309153858615232e+00 2.1339562810262191e+00 3.3861067363869224e-01  -3.8880203402880342e-01 -3.2854197870965789e-07 9.3865796398988943e-01  -3.3265918447451481e-01 2.6428570498178505e+00 -3.5911598519545102e-01  8.9889287494709191e-01 2.9830796551341998e+00 8.7996683728414460e-02  5.9146284880409583e-01 2.4953132221530314e+00 1.0481644595156316e-01  -1.0460876781841086e+00 1.7037467838800520e+00 3.3303185184397754e-01  -1.0930538284396024e-01 2.2334254282223078e+00 -2.6505164929801400e-01  -1.0355026284543838e+00 1.1336737297657611e+00 -2.3501088636445600e-05  -1.0196885839623182e+00 3.7802967148978095e-01 -2.4584392383234490e-05  1.0356551993938519e+00 1.1336314730082857e+00 -1.2839539074452635e-05  1.1327238884305051e+00 1.8856257076375746e+00 -4.8877244828733668e-05  1.2168179486815722e+00 2.6466731641258598e+00 -7.4041839758559448e-05  -1.2159233869522124e+00 2.6468125919733891e+00 3.3174311365313603e-05  -5.8270919143862443e-01 1.7007023617165882e+00 5.5070426704430764e-01  1.0197400818882016e+00 2.2635592878046480e+00 3.2231174956752306e-01  3.5958873065306446e-01 1.3997621082100804e+00 5.6865762255841168e-01  1.5028010429792467e-02 1.6409997095868469e+00 1.7690313461494772e-01  4.1485601386214033e-01 4.2423046910483936e-01 9.2422857384594070e-01  3.0767853735690220e-01 1.9583498083325726e+00 1.0069463743756064e-01  -3.0687566789946541e-01 1.9876672678598750e+00 7.7577808712034790e-02  -9.7138751485111652e-01 6.9548712255716960e-01 3.3538030962217863e-01  -1.0204399473331520e+00 1.3506773655800235e+00 3.0854816664664370e-01  -1.2273802014767188e-01 1.0956185152847404e+00 6.4729929048308266e-01  9.9683108769460238e-01 9.8495436104603962e-01 2.8397275269386835e-01  -7.4063546784123024e-01 1.2011625488450215e+00 7.1549264298986792e-01  8.6177241313597308e-01 2.6481378892642660e-01 5.4773008668004441e-01  1.8530608053563283e-01 2.3704833109745045e+00 -3.2107216085574908e-01  -6.1860549893713446e-01 2.5569960048001170e+00 9.7647978217433540e-02  -3.2044283091390119e-01 1.4735144007597081e+00 4.7877654598142388e-01  9.5917690697669111e-01 1.5940229083359838e+00 4.7911179881801214e-01  -6.5361838396384009e-01 2.3130345097168257e+00 2.7713319752076437e-01  6.7374403450162912e-01 7.9925470262256781e-01 7.8397748014997370e-01  -9.7101205840958860e-01 3.0862577107874700e-01 3.1383427941767467e-01  -6.4594210081490899e-01 5.6954289726509766e-01 7.9814694875197512e-01  -4.0383132643858155e-01 7.2113398093474479e-01 9.2173543304865146e-01  8.4773641848137038e-01 1.1874850364604990e+00 6.2547149086629794e-01  -8.5812313929775352e-01 8.0735839364856954e-01 5.8527315680390612e-01  -7.0314392031509809e-01 2.8952948221488611e-01 7.4103564397952371e-01  -8.5208898157703516e-01 1.8301583375635733e+00 5.1582418628944560e-01  -1.4771337864054862e-01 2.5413131581444187e-01 9.9420432756895849e-01  1.9847514138651562e-01 2.0580498737266878e-01 9.8890796756078170e-01  5.9752406866179986e-01 2.3210359262442021e-01 8.2531153992809558e-01  -3.9899171992554650e-01 1.0199625788100266e+00 8.3426967177801725e-01  7.6370478575403689e-01 2.3995662304402434e+00 2.9628210939948790e-01  7.3308465227459862e-01 2.7326320371004287e+00 1.0042716600119676e-01  4.6412411539181658e-01 2.7333281680089367e+00 -2.4045033188256659e-01  1.6171677339358465e-01 1.4819833367189068e+00 3.4655624403670826e-01  4.7081827988641284e-01 1.9348626344856954e+00 3.2298170829098866e-01  1.0860438035237765e+00 1.6994963373814145e+00 1.9931077256019136e-01  8.3980345232853237e-01 2.0868814080505365e+00 4.3559647209958507e-01  -1.0927383660664942e+00 3.0245941548855408e+00 1.2470466026223979e-01  -1.0461401963901729e+00 2.7409708576068086e+00 1.9920498495472580e-01  1.0984817186330555e+00 2.8154625417219599e+00 1.6451076879970189e-01  9.8310258583715637e-01 2.6312020846089068e-01 2.7039127388810480e-01  1.3875552294245283e-01 8.6500731789505481e-01 8.6750852062960193e-01  -4.4904497782504077e-01 2.5485424473392735e+00 -1.2461215305764424e-01  1.1388503708293258e+00 2.4659796527684597e+00 1.8602038218830869e-01  -1.5275864017172847e-01 6.2111813411045569e-01 9.7502987430125065e-01  -1.1085734606746920e+00 2.3633079327579889e+00 2.3072097890438625e-01  4.8711244014233390e-01 1.6276017564771146e+00 5.2953974674840010e-01  1.1602046945859386e+00 2.0745393200712705e+00 -2.1011128633550483e-05  4.3401588911460837e-01 2.5014150526992847e+00 -1.1375866663713027e-01  -8.4477554385732490e-01 5.0059052246621486e-08 5.6446291301918383e-01  -4.7531994621607510e-01 2.1510303087347560e+00 1.8562067809899124e-01  1.2101679849621787e-01 2.1256416899325790e+00 -1.7535709639254821e-01  -7.3544711519524752e-01 2.9123787434611685e+00 -2.7564734762998483e-03  -4.6117764116840260e-01 1.9295856378543226e+00 3.1558647871253925e-01  -1.0094485872192245e+00 9.0070835537520000e-01 2.0251756428556394e-01  -9.2797895338740133e-01 1.2468771101726657e+00 5.1736747562409691e-01  -1.6309121425334985e-01 1.7913912719372242e+00 1.0436680346108321e-01  -8.0754098561584997e-01 2.6961467361008702e+00 1.7576931351222144e-01  -1.5924284268549846e-01 1.5315738378016521e+00 3.0560161109834932e-01  -2.7919239048222050e-01 2.4183338758337434e+00 -2.6217084753331438e-01  4.4368131230352786e-01 2.1652704595251202e+00 1.3160435413635793e-01  -6.4885193036379540e-01 1.4221003343573022e+00 6.8657873154713400e-01  8.1558409777289143e-01 6.7216693105185832e-01 6.3464859260909345e-01  -8.5247931486888939e-01 2.3609646254835667e-01 5.6084877630186913e-01  9.9462092017646386e-01 7.3593027804815914e-01 2.5393170721599834e-01  5.4993884825107364e-01 6.1070089324535592e-01 8.6211903787326416e-01  5.3455781502088340e-01 1.3171051774804283e+00 7.1823229911397446e-01  -5.1456025099232994e-01 2.0393991366213585e-01 8.7727362671917297e-01  -2.4972446011178187e-01 2.1402821649997534e+00 -9.5924445199401673e-02  -1.0208524090925981e+00 5.6698881780223709e-01 -1.5364089542763494e-05  -2.3434983890060504e-01 1.2760444908525463e+00 5.5855395308554834e-01  2.5839230431723609e-01 5.9162786237735887e-01 9.6427173695833091e-01  1.0410064945426467e+00 1.4926398041456723e+00 2.8971756206036808e-01  1.0517535371132427e+00 1.3220464592137502e+00 -1.5326193603028739e-05  -8.2468443046826478e-01 2.2115921553448881e+00 3.9165383891816546e-01  9.0087307964788044e-01 1.3944108337054621e+00 5.6008051244986112e-01  -9.9647487327230777e-01 -6.3142173062680623e-07 1.9820656770741535e-01  3.8768144405582888e-01 1.0110168669759694e+00 8.3635721043295352e-01  1.6451405899944949e-01 1.2542847125570027e+00 5.3224983237713830e-01  -1.0981920536827374e+00 1.9235761870999799e+00 2.4036111156009157e-01  2.0299427889692079e-01 1.7641659891858701e+00 1.5150378191827607e-01  1.0208635683158345e+00 5.6697043337447917e-01 -2.7422821011414137e-05  1.1103412419431231e+00 2.0657563218865187e+00 2.3315914440780794e-01  -8.5120531395376997e-01 1.0319340250700888e+00 6.1490835896300655e-01  -1.0178009692261643e+00 1.1421994518063523e+00 2.2730583932265230e-01  -1.0181638489534588e+00 1.8905776625520104e-01 -3.3324589460341251e-05  9.4593473089569280e-01 1.0946116928998468e+00 4.6055040912059986e-01  4.1025304695764997e-01 2.1158589653044815e-01 9.2779876165048736e-01  -1.1593000547018280e+00 2.0746867298270519e+00 -3.0021940185669484e-05  8.5195776444840488e-01 4.7362445988399954e-01 5.7256585242119462e-01  1.0020788245410210e+00 4.5704171511199643e-01 1.9615691436071639e-01  9.2554242942914811e-01 7.2600004110944494e-01 4.5698577713765082e-01  3.4636180611577488e-01 1.2234514344612122e+00 6.8256566349569181e-01  8.7399302217396824e-01 1.7969929613583653e+00 5.1488015156833677e-01  -1.9381024346109188e-03 9.6128090941300470e-01 7.4879347444344579e-01  1.0238405831784791e+00 1.1766424150150365e+00 2.0712353600114292e-01  -1.0036597971204868e+00 4.7266936785356961e-01 1.8821192085470737e-01  5.9504734411517358e-02 6.8738363469820429e-01 9.6492383966716411e-01  -9.4884660102227680e-01 4.9661089680270382e-01 3.8575230445551506e-01  -5.9193673181996720e-01 1.0846283787213957e+00 8.0234947955962099e-01  -8.9035630296233637e-01 2.0227372166195430e+00 4.4668618860774312e-01  -1.2237742915757581e+00 2.8385995584358117e+00 1.4426161563740257e-04  7.7338669945939165e-01 1.0132605276976618e+00 7.0194892469917070e-01  5.8353896354944090e-01 2.6561466012170514e+00 -1.3549841211775937e-02  -4.7011973229072063e-01 1.4659618205279303e+00 6.1278532255376827e-01  6.3045973321088511e-01 2.0048149902420955e+00 4.2239985543748737e-01  6.7333704796369975e-01 1.6509529708301032e+00 5.9820579927177120e-01  -1.8460577497970987e-01 2.5589375297575847e+00 -4.6834870221076813e-01  -6.4186280912183463e-03 2.3589943538529901e+00 -3.9103699192327812e-01  -1.1408016167783821e+00 2.1728053907534273e+00 1.7447158821620418e-01  9.9647607156882967e-01 -5.9238096145193846e-07 1.9820944492042669e-01  7.3502769511350041e-01 2.9116899682372970e+00 -4.9413386450794551e-03  1.9820818220787179e-01 1.2760053662407449e-06 9.9649223849738877e-01  -1.9821643536583763e-01 1.3020222015911876e-07 9.9648273643184249e-01  5.6445617066673315e-01 2.3334559925044425e-07 8.4477713762360207e-01  1.8276554996437386e-01 2.5586188657018827e+00 -4.6914652827540670e-01  8.4477857943585510e-01 -2.2648038987344614e-07 5.6446230499034866e-01  1.0921519484471123e+00 3.0245791453137749e+00 1.2349815890361812e-01  -4.6512681068758394e-01 2.7339146072734128e+00 -2.3892579038531897e-01  -5.6446403004547663e-01 -3.4798581604438664e-07 8.4477247454723492e-01  -7.0008291975433984e-02 2.0737027166502164e+00 -1.5285170702487716e-01  9.0614861553478776e-01 2.7906271017916007e+00 1.7269217839070655e-01  4.6569833765025842e-01 2.3676178494399367e+00 2.3551338491048419e-02  5.9854075969121368e-01 2.3351442115729597e+00 2.1363050769661940e-01  7.4523445766449659e-01 2.5684696075464477e+00 2.0229763405147713e-01  3.3398627509305695e-01 1.5424591667065999e+00 4.4115728253494829e-01  -6.7224848258299763e-01 2.7344168724863986e+00 4.1505298683285161e-02  -3.3188235137631417e-01 1.8862035419612908e-01 9.5685550900753491e-01  -1.1433346585106268e+00 2.5604088965812837e+00 1.7353154470102022e-01  -9.3736421874277787e-01 1.6454509278225444e+00 4.9954182924476104e-01  -1.0618848022346967e+00 1.5332837634860381e+00 2.1175565195495186e-01  -1.1031207370477865e+00 1.6976701338087283e+00 -2.8356695963201231e-05  -7.6527566569885441e-01 1.6445307252469814e+00 5.9658927968379916e-01  -5.7051338366333271e-01 3.9105650456908581e-01 8.4614465351666945e-01  1.2247164749308825e+00 2.8384673599405712e+00 -4.3853280032613859e-07  -1.0272012561518462e+00 9.4485246048744020e-01 -1.7266933782749763e-05  1.0181542307980338e+00 1.8905273041650408e-01 -2.9254475070444268e-05  1.1037935917804456e+00 1.6975445492238448e+00 -1.6484384872507352e-05  1.0272700588766042e+00 9.4482105054323640e-01 -4.8113536405402340e-05  -1.0514334006623385e+00 1.3221076595680818e+00 -3.0147863699415737e-05  1.2031903027131519e+00 2.4551879428953969e+00 -3.3212096236026479e-05  -1.2023417324209467e+00 2.4553289002502807e+00 4.8683855113092349e-05  7.4192304803204734e-01 2.8701795330667407e-01 7.0259476876974936e-01  -1.0017555979916255e+00 1.8749042298344887e+00 4.0385244919201568e-01  -7.8785857255275704e-01 6.3526119722084762e-01 6.6651236583227391e-01  -3.0677986749028546e-01 1.1468875699809535e+00 7.1172858700060948e-01  -6.6414192085480106e-01 1.8700038546675684e+00 5.0332117178394331e-01  -4.1331290268058435e-01 1.6510108741213596e+00 4.4752241943655879e-01  -5.2623690364539921e-01 2.3259783372680820e+00 1.3652502425515459e-01  5.3349975648594339e-01 8.9876157448366267e-01 8.5816757024917900e-01  1.8005393299574934e-01 1.9959977744924950e+00 -4.2763620921786379e-02  4.7093297630280673e-01 1.7787639082154041e+00 4.2332096348383036e-01  9.8822834615701016e-01 2.4437900209886676e+00 2.9317098283744469e-01  1.1417782318507317e+00 2.2431522138864963e+00 1.8196682641673589e-01  1.1108008904275037e+00 1.8843463079826663e+00 1.8851932937138741e-01  -2.2222216065107139e-01 9.9924432074684832e-01 7.8048479132096515e-01  7.0473466718448452e-01 1.2496336375810366e+00 7.2437954367193336e-01  5.1625476056990749e-01 1.4779341144837592e+00 6.3155113526821005e-01  -2.0654772117392584e-01 4.3765870689540937e-01 9.7888717770659606e-01  -1.0087403289762134e+00 1.5150739908815876e+00 3.9073497442200567e-01  -9.7214983060575066e-01 2.3052813789585747e+00 3.3773812062722114e-01  -1.0099728770275025e+00 6.4975071330463474e-01 1.6230720292605250e-01  4.1713512322832685e-02 1.7841098632423682e+00 6.7365428834084473e-02  5.7546236989747523e-01 4.3561419564516185e-01 8.4375608389053713e-01  2.4024946237935466e-01 4.1300133213106316e-01 9.7361025482656960e-01  1.1003079814942676e+00 2.6400958098027845e+00 1.9814594846675318e-01  7.6902150769072686e-01 2.2375919178305903e+00 3.7096265196421069e-01  -4.9898524836452518e-01 2.4511216566563543e+00 1.4658575539118892e-02  -5.0916592250540693e-01 1.8141593976331183e+00 4.3871253040885405e-01  1.0027385248558476e+00 2.0703864299845360e+00 3.7276797741744516e-01  -5.0718997440699657e-03 1.1883304480089565e+00 5.4351769229054980e-01  3.2721444556148971e-01 2.1069663368549736e+00 1.4246144891311097e-02  3.4246519245576656e-01 1.8427172615063181e+00 2.2830532883462279e-01  1.8678569010393685e-02 1.8034897056255059e-01 1.0072581480491107e+00  -7.4377415774085154e-01 2.5408979633228914e+00 2.1782298429773694e-01  1.7412054910017366e-01 1.6207817325406171e+00 2.4407708957202565e-01  3.1691603131147350e-01 2.3872959688143265e+00 -1.9580103062965631e-01  -3.1879675246770844e-01 5.7047116986209767e-01 9.5280086436404610e-01  -4.9057551389005982e-01 5.6742177313687003e-01 8.9236451629290103e-01  6.0575886667865196e-02 2.2403573235113790e+00 -2.8713335700112308e-01  -1.7653103032462744e-01 1.9905098936676471e+00 -4.1054940905656118e-02  -9.0203452691669572e-01 6.3562166262751474e-01 4.9725217021297258e-01  -9.6751299842440353e-01 8.6225071589156976e-01 3.6583925714697313e-01  -3.6203547187575452e-01 2.1424140671834131e+00 3.3386099741675737e-02  -3.0542003071646162e-01 1.8513471072079821e+00 1.7843414042984870e-01  -1.0089516399912994e+00 2.8359363685616706e-01 1.4519860345659094e-01  7.8737478651445458e-01 1.3587126096835198e-01 6.4533172406651562e-01  -6.4325804658944252e-01 1.3895873822432153e-01 7.8861659416185903e-01  -1.0989547200645322e+00 1.7603705772651952e+00 1.6933812350974906e-01  1.0444968949699145e+00 1.3514411930458412e+00 1.7944924874444854e-01  -4.9993258731804130e-01 8.7415982369011969e-01 8.7362039684470261e-01  -5.9875330903862012e-01 7.3488158190829089e-01 8.3510163869892429e-01  7.1350025778142241e-03 1.5083914853696831e+00 2.8149942352257518e-01  -9.7390943361887228e-01 1.3946447962273059e-01 2.9531346741723685e-01  -5.5784552073782834e-01 2.6376146658422162e+00 -3.3390563342559069e-02  1.0172703369785998e+00 8.5056611181160080e-01 1.3655522861626762e-01  -1.7396669959176694e-01 1.6647331579720743e+00 2.0937432646065146e-01  6.8602135497348049e-01 6.3542791068753823e-01 7.6835187172189678e-01  -9.1179981807791755e-01 3.5573752406453557e-01 4.6279376665363736e-01  2.1841670062998594e-01 2.2548091782117705e+00 -2.0866982092845732e-01  8.2867250084126587e-01 1.5825010124854744e+00 5.9043592631923680e-01  4.7451583620290050e-01 1.1754214819190916e+00 7.7203473406699141e-01  -3.0372830840231896e-01 2.2937883229826364e+00 -1.4816858443793104e-01  7.6990938453758972e-01 1.9475882152062425e+00 4.8867359399567267e-01  9.9585772824338192e-01 1.7427352567958720e+00 4.2263498792295601e-01  -7.4462845763260654e-01 4.5668838997680744e-01 7.0604462009925506e-01  2.1298340818554165e-01 7.4494958974238024e-01 9.4442447798784968e-01  -5.4280333814465576e-01 2.0738702291352187e+00 3.1579265732886430e-01  -5.8929868705703514e-01 1.2402359991189169e+00 7.5524089820178519e-01  -7.3529974760895334e-01 1.0361651648932209e+00 7.3465646246548011e-01  -7.8917914209983298e-01 1.3479019103279704e+00 6.6207161354292166e-01  9.4748602026406470e-01 9.3786387807677107e-01 4.3109958271188292e-01  -9.8325478510422726e-01 1.1801329837366132e+00 3.8120043510519430e-01  8.9762265430985222e-01 1.2517422361112443e-01 4.7948627528756255e-01  9.1680617823254684e-01 3.8423835906374115e-01 4.5397705708740937e-01  -5.9960958545277498e-01 1.5603325917860598e+00 6.2396056725616300e-01  9.8501394767490191e-01 1.4452127471803542e+00 4.3288646193479152e-01  -8.200423580460