<?xml version="1.0"?>
<VTKFile type="UnstructuredGrid"  version="0.1"  >
<UnstructuredGrid>
<Piece  NumberOfPoints="758" NumberOfCells="1386">
<Points>
<DataArray  type="Float64"  NumberOfComponents="3"  format="ascii">-1.570796326794897 3.048 0  -1.570796326794897 0 0  1.570796326794897 0 0  1.570796326794897 3.048 0  0 0 0  0 3.048 0  -1.570796326794897 1.524 0  1.570796326794897 1.524 0  -0.04609926118424437 1.524 0  0.7853981633974483 0 0  0.7623485328053261 2.262242601661362 0  -0.7853981633974483 0 0  -0.7853981633974483 3.048 0  0.392699081698724 0.7745759241961347 0  -1.570796326794897 0.762 0  -0.8084477939895706 2.0955 0  -0.68277245543452 0.8915343570675713 0  0.7853981633974483 3.048 0  0.778743707341909 1.468410948960538 0  2.780093748954961e-16 2.285302774973185 0  -1.570796326794897 2.286 0  1.570796326794897 0.762 0  1.570796326794897 2.286 0  -0.9375370967763674 1.47348297960658 0  0.9831575747762593 0.9003629142671278 0  -0.3926990816987241 0.4064697549061488 0  1.177419588818055 1.905 0  0.3692901340097942 1.880893989147954 0  -0.4920225169641509 2.564371687128368 0  0.3926990816987241 3.048 0  1.178097245096172 0 0  1.155705348811136 2.643920532523289 0  -1.178097245096172 3.048 0  -1.178097245096172 0 0  -0.1391296372266528 0.8873724190154949 0  -1.10527745318919 2.528282743051346 0  -0.9817477042468103 0.4742759268549471 0  -0.3416666987802651 1.923944646262223 0  -1.570796326794897 1.905 0  -1.156555306160469 1.030861936336814 0  0.7648449098493205 0.4764142032227 0  0.3926990816987241 0 0  -0.4820376416180818 1.326151321396512 0  0.06374421723344185 0.4545169930886408 0  0.1972735722393064 1.163324878565267 0  0.3900417218314142 2.566922767651637 0  1.570796326794897 0.381 0  1.188877612935585 1.295195418509834 0  1.179914028402171 0.5308585702661928 0  0.7660075594126428 1.865233039449035 0  0.6330293131838399 1.095171663968746 0  -1.201232463242587 2.144287146570887 0  -0.3926990816987241 0 0  -0.3926990816987241 3.048 0  1.178097245096172 3.048 0  0.7684409382397209 2.649499271873753 0  -1.236954997304436 1.7145 0  -0.1088573452899617 2.666651387486592 0  -1.570796326794897 1.143 0  -1.570796326794897 0.381 0  1.570796326794897 1.143 0  1.570796326794897 1.905 0  1.570796326794897 2.667 0  -1.570796326794897 2.667 0  -0.6730839067294777 1.743003792473746 0  1.199831389396789 2.275437921225198 0  0.3936837537618041 1.495643752599615 0  0.01539369169800942 1.928544709491661 0  0.4156551272669651 0.4219033286010089 0  0.3401546043708642 2.225103550856524 0  -0.3379897306391274 2.262671266279809 0  -1.23624174049596 0.7000907110925838 0  -1.265224057170889 1.360131453617764 0  -0.1224339018241312 1.210043725539656 0  1.289286200625578 0.9918698881707442 0  -0.7751142346211329 1.197848666814478 0  1.003546186550495 0.2660297686099683 0  0.1963495408493621 2.808538634159524 0  -0.8079023568959116 2.703551618159924 0  -0.3480226984353056 1.610059855391589 0  1.075147893506229 1.598068412087719 0  -0.8290627893979112 2.399544545867518 0  0.6965048925255637 0.7972100472372819 0  -1.257765094876752 0.3107645483825858 0  -0.6724835324263325 0.5684215760013651 0  -0.3995059642389676 0.7173610149075536 0  0.9136951972244611 1.187564504803626 0  -0.964259350608907 0.8095514380783081 0  -0.7565990314517038 0.2897049735129544 0  -0.9603859887840651 1.834914433810327 0  -0.1457055965762301 0.2521630699436873 0  0.1963495408493621 0.2041911848053476 0  0.6241974196550791 0.231695999252114 0  -0.4098815011312292 1.029160072548571 0  0.9592800715482012 2.452820690856482 0  0.9648684169153161 2.840751931000357 0  0.5890486225480862 3.048 0  0.164631037784102 1.698913854044779 0  0.5664480837073581 2.070920238540226 0  1.374107957806476 1.7145 0  0.9861079629544779 2.102471438422718 0  -1.374446785945534 3.048 0  -1.288827800789186 2.762781313597598 0  1.353232957571468 2.835634774483438 0  1.302158670506274 0.2650078124691045 0  0.1394669809465775 0.8907702620243092 0  -0.5631487221059602 2.830992231257464 0  1.372837635547072 2.483038902756259 0  -0.1493395228831287 0.618617259260858 0  -1.32327048447753 2.378769394323546 0  0.56080204725298 1.699622905297025 0  1.570796326794897 2.0955 0  0.5403456747786348 2.786446773498672 0  -0.9817477042468103 0 0  -0.5847039960246873 2.326882432521036 0  0.1225428891326576 2.526494255738436 0  -0.9817477042468103 3.048 0  -0.5522901559753841 2.071668786267058 0  -1.370864794258017 0.9075071715671403 0  -1.043891045637083 1.250611220450313 0  -0.1652643923634778 2.09141301924679 0  -1.044446740946883 2.764982067459552 0  -0.1610370079820225 1.763280243096074 0  -0.3136912237752232 2.810498886211121 0  0.5400974078002052 2.370472734822523 0  -0.7009161718414544 1.427243880175582 0  0.902907438200502 0.6735032943420574 0  -0.9879196222361604 0.2371379634274736 0  1.319268546233604 0.7412771512308228 0  0.5578373583610097 0.608241627784878 0  0.5756483102040615 1.332636919938113 0  -0.5281701577409 0.2032348774530744 0  -0.266729509930448 2.489223923247521 0  -1.570796326794897 0.5715 0  -0.2430656531629531 1.405631921096758 0  0.253622337931223 0.5884397663452474 0  1.284044721043478 1.50372037617638 0  1.570796326794897 1.3335 0  -0.9904333867980613 2.235882060371517 0  0.9871146764618406 1.395690276854986 0  -1.374446785945534 0 0  0.3981951765262902 1.020833864419675 0  0.1670583512016766 1.405384478716078 0  -1.330327693484763 1.938638984813805 0  0.2106653067452682 2.040805097078886 0  1.570796326794897 0.5715 0  1.334822181490566 2.081373939821734 0  -0.9303227889097604 1.033236710715967 0  -1.34639228476592 1.150776798768373 0  -1.570796326794897 0.1905 0  1.106697207481837 1.099709897393925 0  0.4137866939027022 0.2104288000383385 0  -1.570796326794897 2.0955 0  0.9761377489246634 0.4754251272674608 0  1.377108465632662 0.4605024587280874 0  1.108114944719677 0.7297638044096917 0  0.3695908229138113 1.285681859811955 0  0.9799112840676307 1.800306505551499 0  -0.001696842075803034 1.042028929293442 0  1.366537356420357 1.185723700290463 0  -1.385029840108318 0.47625 0  0.05842649915411911 0.6874537157920781 0  -1.183268988745763 0.4997334438341218 0  -0.6073502281622543 1.081347079085406 0  -1.026941765261019 2.031536576622642 0  -1.570796326794897 2.8575 0  0.8159726599830506 1.011928543199529 0  0.7652782693277244 2.849245002237192 0  -0.5252326280373281 1.520125074885265 0  0.7648326174724897 2.063743853392348 0  0.757099741434616 1.666331708950521 0  -0.1963495408493621 3.048 0  -0.005410422648647092 2.843333256403111 0  -1.395368347654653 2.19075 0  1.374446785945534 0 0  0.9817477042468103 3.048 0  0.1963495408493621 0 0  -0.1963495408493621 0 0  0.5890486225480862 0 0  0.1963495408493621 3.048 0  0.9817477042468103 0 0  1.374446785945534 3.048 0  -0.5890486225480862 3.048 0  -0.5890486225480862 0 0  -0.06865319188571758 2.471928549109083 0  1.159049337209348 2.838090892449816 0  0.5817075150535711 2.596909954318943 0  0.7656515661107315 2.455866896253367 0  0.9620790410056582 2.647119292933887 0  0.3676829480103987 1.68739481709134 0  -0.8886101495223063 2.878912500124773 0  -0.3317793704126089 0.1873756770788371 0  -1.383208664444332 2.577695923010364 0  -1.043597917648523 1.648216005744782 0  -1.362178343413552 1.546177620526679 0  -1.570796326794897 1.7145 0  -0.8462722504471433 1.648434957877788 0  -0.588076822054871 0.3899352838051667 0  1.570796326794897 2.8575 0  -1.570796326794897 0.9525 0  1.570796326794897 0.1905 0  1.570796326794897 1.7145 0  1.570796326794897 0.9525 0  -1.570796326794897 1.3335 0  1.570796326794897 2.4765 0  -1.570796326794897 2.4765 0  0.8103777117362174 0.287468585434799 0  -1.145334531235929 1.881885620422454 0  -0.8620560674467429 0.6361265362229395 0  -0.321688879263093 1.207848147265888 0  -0.7798551871678058 1.904240998338365 0  -0.4724954359209014 1.769587110195458 0  -0.667402576232105 2.495985359319255 0  0.5365063314111709 0.8945566719544227 0  0.1855702280441107 2.342745654422604 0  0.55510120733165 1.88540118775351 0  1.188295809121239 2.460939894898248 0  1.38587897409014 2.260870763688798 0  1.383978812419919 1.901097375082534 0  -0.2265735189171196 1.049795314962436 0  0.7387890113368257 1.246392780742437 0  0.5763234466275948 1.516457524623135 0  -0.203279258075353 0.4348372558382012 0  -1.179202350299698 1.523245956950107 0  -1.151844216720993 2.318990544544152 0  -1.410806081599612 0.6547540757597369 0  0.04190096621848406 2.108399609871347 0  0.5925649981629265 0.4343292987553075 0  0.2371113691258682 0.4102816185532077 0  1.334103818253725 2.657728219912091 0  0.9405077369493808 2.275181409651143 0  -0.633962040105568 2.669303984283053 0  -0.6045614816381242 1.904349918307267 0  1.159697673803787 2.079238591118184 0  -0.004643801590645341 1.347662554528907 0  0.3691400131247499 2.395423267764724 0  0.3855005143298051 2.055603978165229 0  0.01839821075864462 0.1788084577298442 0  -0.9568120219060965 2.61629404172056 0  0.1783135820912846 1.871116340262054 0  0.3649950158263953 2.745288921627024 0  -0.3142054567155264 0.5671999812317062 0  -0.4933549623779417 0.564740705097546 0  0.06092775470575962 2.685867440722903 0  -0.1801827362748675 2.337517890002858 0  -1.063355415037434 0.6386189748554 0  -1.205242865599393 0.8676070232612285 0  -0.4176020549597784 2.412196127179313 0  -0.3347051678178828 2.093252344225509 0  -1.427772711006951 0.2857500000000001 0  0.8835729338221293 0.1362887052191026 0  -0.6831011505337878 0.1389086130988801 0  -1.403875662049666 1.77648180985222 0  1.394165436236593 1.362588987767805 0  -0.5007942298153729 0.8700626692351643 0  -0.6093220848169366 0.7321530406295067 0  0.007534593095922887 1.760126887057542 0  -1.276272015520854 0.140425968067263 0  -0.7270478511000733 2.847016806985676 0  1.436331331726002 0.85725 0  -0.1770320080670663 1.927167796173981 0  0.7200726153501196 0.6345534912379586 0  -1.099983122078282 0.3577316115390257 0  0.2324759135153202 2.648405702327079 0  0.9054371869972004 1.582409569434113 0  0.5000672234640285 1.188708149930449 0  -0.340793734207542
[...]
<PointData  Vectors="phi"> 
<DataArray  type="Float64"  Name="phi"  NumberOfComponents="3" format="ascii">-1.0232179422538807e+00 3.0467247618097928e+00 -1.7313523639046920e-05  -1.0160025272986151e+00 -2.0748558227569481e-08 -1.0766576475233213e-05  1.0160027720600759e+00 -1.5821489692655313e-08 -1.2625651555509983e-05  1.0232231304636477e+00 3.0467246074994128e+00 -8.2077156798531062e-06  -5.9637611607386289e-06 5.9142431963584199e-09 1.0160023264546880e+00  -1.2425147780240704e-05 3.0493976974271746e+00 9.6024531888408582e-01  -1.0212131362562957e+00 1.5228416969369230e+00 -1.7820390395950558e-05  1.0212163261424714e+00 1.5228412935520890e+00 -2.5934989052298811e-05  -4.6812379905252055e-02 1.5255555582736848e+00 1.0079305458668200e+00  7.1842649541829762e-01 2.2682104303687107e-08 7.1841600216969381e-01  7.0846959735342441e-01 2.2617877681724807e+00 7.3379053739247890e-01  -7.1842519606285460e-01 -2.1955763652979716e-08 7.1841747578655479e-01  -7.3251645083183081e-01 3.0472592198012816e+00 7.2130249348475717e-01  3.8882372392762615e-01 7.7513450453189070e-01 9.3692758611733440e-01  -1.0182922908476126e+00 7.6126227776845268e-01 -1.9428255028291146e-05  -7.4085772815993023e-01 2.0949802536378015e+00 7.0076798504481097e-01  -6.4160148778355186e-01 8.9165400459435784e-01 7.8700089207630675e-01  7.3252186610036252e-01 3.0472623504436824e+00 7.2130498600439452e-01  7.1606029162856866e-01 1.4682238755683705e+00 7.2167759626276695e-01  3.9359573226433733e-06 2.2875503243295094e+00 9.9893168564061552e-01  -1.0230088968693072e+00 2.2847289469665419e+00 -2.1057554413887167e-05  1.0182944350229823e+00 7.6126205808857217e-01 -3.0892026014725315e-05  1.0230165975208165e+00 2.2847288341906298e+00 -5.4126559336295870e-05  -8.2243766712679944e-01 1.4729169106123923e+00 6.0054585303357577e-01  8.4708683758300674e-01 8.9996470330015887e-01 5.6286410059591263e-01  -3.8872827548067501e-01 4.0677704469111520e-01 9.3789992922277288e-01  9.4494530843862856e-01 1.9038957295228960e+00 3.8949564338144338e-01  3.6746420422885101e-01 1.8820448091049726e+00 9.4017455144988837e-01  -4.8472402484224780e-01 2.5649395632400309e+00 8.8873672253969815e-01  3.9439874239201278e-01 3.0490770154557167e+00 9.2545349616177242e-01  9.3866197073318425e-01 -2.6638745838852170e-08 3.8880672547352507e-01  9.3955473738117301e-01 2.6427113088913146e+00 4.1043912674625838e-01  -9.4946683037459390e-01 3.0467701780409966e+00 3.8972868740761635e-01  -9.3865866025240763e-01 -7.2682825026894266e-08 3.8881440925051081e-01  -1.4087062583636387e-01 8.8828130275069150e-01 1.0035872220021824e+00  -9.1761319518028739e-01 2.5271134857853048e+00 4.5680169315558039e-01  -8.4534085672787029e-01 4.7406850072488943e-01 5.6431062838270851e-01  -3.4106364714518522e-01 1.9252059116777496e+00 9.4918611849307777e-01  -1.0223518003663559e+00 1.9037558340723895e+00 -2.4390316818211424e-05  -9.3263305395297946e-01 1.0301666562283140e+00 4.0879817463213824e-01  7.0371907209356432e-01 4.7641625777489621e-01 7.3259951228595088e-01  3.8881349482038430e-01 4.2075753148900428e-08 9.3866030148866431e-01  -4.7154594717609016e-01 1.3267899939234729e+00 8.9689227962878748e-01  6.4693763783385927e-02 4.5501314341807192e-01 1.0128825826258796e+00  1.9911649879104931e-01 1.1644294520984797e+00 9.9234293576886479e-01  3.8918025069645906e-01 2.5680400565613630e+00 9.2867861170424215e-01  1.0170689903654506e+00 3.8060043339534905e-01 -1.9367525753812539e-05  9.4654292686109021e-01 1.2943224534181532e+00 3.7854729766781264e-01  9.4044093055409395e-01 5.3045763283444713e-01 3.8709011608376770e-01  7.0856304115531688e-01 1.8649410880328738e+00 7.3060631783369945e-01  6.0178324079843826e-01 1.0954020826103863e+00 8.1731140692887150e-01  -9.5502228407467149e-01 2.1431078004529773e+00 3.6719096867888279e-01  -3.8880382768230159e-01 1.5616272730619662e-09 9.3866331725450036e-01  -3.9441412723883940e-01 3.0490805703527792e+00 9.2552378029886417e-01  9.4946912544349860e-01 3.0467702397267291e+00 3.8973368466571068e-01  7.1630155898969827e-01 2.6488715181432463e+00 7.3103387667932229e-01  -9.6563238512823046e-01 1.7134053877400022e+00 3.3291438945671120e-01  -1.1051457198278211e-01 2.6690144891626950e+00 9.8538522104820803e-01  -1.0197684528916120e+00 1.1420085521528760e+00 -2.6805573301164386e-05  -1.0170686770311550e+00 3.8060053037028080e-01 -2.5176394072817978e-05  1.0197692443212769e+00 1.1420081992671054e+00 -9.8550842346475246e-06  1.0223570083824105e+00 1.9037556620979057e+00 -5.1862047872542911e-05  1.0232627367240974e+00 2.6657274895257355e+00 -2.2836627620096335e-05  -1.0232574826741165e+00 2.6657275842681165e+00 -2.2641072253832921e-05  -6.3614579996002407e-01 1.7430538838488232e+00 7.9184642868266886e-01  9.5506343416969675e-01 2.2742384054516287e+00 3.6861181373961116e-01  3.9016278562441997e-01 1.4965774261978497e+00 9.3349738119258274e-01  1.5630823353140588e-02 1.9304772955656371e+00 1.0044306701186110e+00  4.1016192661729711e-01 4.2220585199520905e-01 9.2872270741245821e-01  3.4005454741316343e-01 2.2264592215350509e+00 9.4727025864124859e-01  -3.3805349214088826e-01 2.2640424426767698e+00 9.4763455666689689e-01  -9.6132597058768798e-01 6.9952849790730209e-01 3.3360142590451963e-01  -9.7317742187050182e-01 1.3591545664438334e+00 3.0561211259344240e-01  -1.2407084962193973e-01 1.2112637308069643e+00 1.0039716322450365e+00  9.7882026747059536e-01 9.9107268696357820e-01 2.8222248854348581e-01  -7.1251319605601215e-01 1.1977423248071879e+00 7.2446786883393610e-01  8.5717317173113339e-01 2.6590433093554983e-01 5.4589029513737897e-01  1.9898027213840178e-01 2.8106083163064088e+00 9.7143102375263057e-01  -7.4541789411364112e-01 2.7027996023831409e+00 7.0320274056393850e-01  -3.4687591710705779e-01 1.6111694964007854e+00 9.4923233024233822e-01  8.9846391532207737e-01 1.5972006749301453e+00 4.8298541701144265e-01  -7.5766936527079509e-01 2.3988377352385255e+00 6.8647295486469573e-01  6.5226940215026363e-01 7.9730348800575046e-01 7.7832192061931926e-01  -9.6731312298678152e-01 3.1049466947384952e-01 3.1290917697061377e-01  -6.3306406263852311e-01 5.6853153237503151e-01 7.9408878746063360e-01  -3.9518313929268467e-01 7.1787457534281063e-01 9.3445436289054939e-01  8.0659934944107081e-01 1.1871658787792327e+00 6.1983971350683387e-01  -8.3598171979476499e-01 8.0921980813813232e-01 5.7876113770093984e-01  -6.9750604690009310e-01 2.8971557542440546e-01 7.3858562530815364e-01  -8.3801859442026061e-01 1.8341416418541931e+00 5.8198829616007208e-01  -1.4749667713937192e-01 2.5242690245654487e-01 1.0046899201568860e+00  1.9818056949048826e-01 2.0439608161374340e-01 9.9606317140094169e-01  5.9377397637435680e-01 2.3177107417529388e-01 8.2415637561377919e-01  -4.0499480447259856e-01 1.0298385359005404e+00 9.2926915563208756e-01  8.4150998741111871e-01 2.4518281917549003e+00 5.8408828157863812e-01  8.4730303368175119e-01 2.8396918623814842e+00 5.8042520273102904e-01  5.7583301301596790e-01 3.0479807978098838e+00 8.4406400704189999e-01  1.6653381867428541e-01 1.7005005967953997e+00 9.9408850444325092e-01  5.4833677389102875e-01 2.0712868978251260e+00 8.5287041455544488e-01  1.0022409128223573e+00 1.7133256628675102e+00 1.9855356590056808e-01  8.5452817668536274e-01 2.1015428277772727e+00 5.6086511197359656e-01  -1.0047273876433689e+00 3.0467315662502674e+00 1.9834080387356351e-01  -9.8473796592315876e-01 2.7615276548857919e+00 2.8300448313172177e-01  1.0003989314884834e+00 2.8343709090798699e+00 2.1946702391032077e-01  9.8016964261150918e-01 2.6476415742830356e-01 2.6972279654690073e-01  1.4119083520152564e-01 8.9168245455013917e-01 1.0035274848598466e+00  -5.5099541060348689e-01 2.8311050637380397e+00 8.5603721875541239e-01  1.0039534526367184e+00 2.4817750007882515e+00 1.9990153597189714e-01  -1.5112148698432162e-01 6.1925990277868426e-01 1.0031788977813738e+00  -9.9291928921593797e-01 2.3775174859239767e+00 2.4905027995153456e-01  5.4207577269761897e-01 1.7000654975807383e+00 8.5657103522044609e-01  1.0227484256518120e+00 2.0942364659557802e+00 -2.2991445585642525e-05  5.3031790895513919e-01 2.7866843407045003e+00 8.6707483125123352e-01  -8.4477304750564786e-01 -1.3700246025314031e-08 5.6446117008439278e-01  -5.6556011763577241e-01 2.3270875431451423e+00 8.4313021037956448e-01  1.2429321607464543e-01 2.5287724653098089e+00 9.8760082653098669e-01  -8.5817211143251648e-01 3.0469098452300316e+00 5.6677312064589647e-01  -5.3597346941968915e-01 2.0720948380104991e+00 8.6023925415148261e-01  -9.9842306829811611e-01 9.0671353102391217e-01 2.0178769862046619e-01  -8.8118033901565951e-01 1.2499536568934013e+00 5.1054932649664397e-01  -1.6721701045772486e-01 2.0932972828197420e+00 9.8953960527809992e-01  -8.8972925044715223e-01 2.7638427376752892e+00 5.1172913733399983e-01  -1.6293213273788629e-01 1.7649242269399616e+00 9.9402216519055708e-01  -3.1611706601561196e-01 2.8120003609278932e+00 9.4942940923732488e-01  5.2678146498943934e-01 2.3708672111145566e+00 8.6612306031981334e-01  -6.5704883106818490e-01 1.4272790563647921e+00 7.7448446523114278e-01  7.9843935065033134e-01 6.7330621118011957e-01 6.2882621962884722e-01  -8.4848681291804218e-01 2.3703354612736932e-01 5.5921144017484059e-01  9.8599540131886543e-01 7.4062949377446530e-01 2.5289013397452553e-01  5.3788528389843970e-01 6.0850294115127201e-01 8.6099825387120166e-01  5.5400776823307252e-01 1.3330267574373307e+00 8.4955260704092428e-01  -5.1195452375212780e-01 2.0334011898024948e-01 8.7728481160497540e-01  -2.6871391768280201e-01 2.4909645042151203e+00 9.6452810421262392e-01  -1.0176375929599475e+00 5.7092107217259447e-01 -1.5149330845446024e-05  -2.4457185131382123e-01 1.4068588510924898e+00 9.8083048912148973e-01  2.5485682429618095e-01 5.8899378936455138e-01 9.8215839549928297e-01  9.7941308864436594e-01 1.5026661366914214e+00 2.8734475007245142e-01  1.0205150338749172e+00 1.3324139063540845e+00 -1.4630686414617239e-05  -8.5784122395631146e-01 2.2349016594281044e+00 5.5745247282671428e-01  8.5113118818343236e-01 1.3950620025838101e+00 5.5939679009571985e-01  -9.9647931318397431e-01 -7.8077503857811802e-08 1.9820777965981820e-01  3.9406441874165221e-01 1.0215293827714911e+00 9.3392160172680772e-01  1.6893657644561580e-01 1.4067293546322952e+00 9.9618980159770665e-01  -9.9338261433990060e-01 1.9374324087909200e+00 2.4202164096286496e-01  2.1262936981869698e-01 2.0425398297515551e+00 9.8220097937962003e-01  1.0176390893811098e+00 5.7092097229837468e-01 -2.6576392611945814e-05  9.9491007566692702e-01 2.0801431151221821e+00 2.3760698132158106e-01  -8.1636142673674739e-01 1.0328678337578174e+00 6.0652245953916861e-01  -9.9409360125040425e-01 1.1498478541363952e+00 2.2607884424236868e-01  -1.0164928626436711e+00 1.9029809589828314e-01 -3.3790301417460117e-05  9.1117772589028201e-01 1.0990378317545921e+00 4.5455934898991124e-01  4.0845064602739400e-01 2.1058122251447833e-01 9.2990467429552026e-01  -1.0227458578687938e+00 2.0942368548778387e+00 -3.1345313885624522e-05  8.4215386379580992e-01 4.7522232333111297e-01 5.6903153335168988e-01  9.9819520917907723e-01 4.6005722941125388e-01 1.9560186299531684e-01  9.1060135346889459e-01 7.2929675456318643e-01 4.5336301528681833e-01  3.6720825016222985e-01 1.2865767035924878e+00 9.4351183387964221e-01  8.4912403720412721e-01 1.7995110398850753e+00 5.6566979121045702e-01  -1.7264175865538264e-03 1.0431353280409077e+00 1.0125065169668210e+00  9.9862747626234227e-01 1.1847636123259049e+00 2.0608958467424324e-01  -9.9976631803214433e-01 4.7578812409504678e-01 1.8768842629870877e-01  5.9304525012982043e-02 6.8819641676590304e-01 1.0124704190481613e+00  -9.4166596457876262e-01 4.9935249872579340e-01 3.8394610893586317e-01  -5.8044759159632087e-01 1.0816337719899480e+00 8.3239090140921901e-01  -8.7639578489407366e-01 2.0305686721633203e+00 5.2577952351621626e-01  -1.0233079924581374e+00 2.8562266380319370e+00 -3.0918545279819023e-05  7.4125601310811540e-01 1.0117788708594402e+00 6.9516737117122129e-01  7.1581716670378714e-01 2.8485784337827851e+00 7.3422680364632309e-01  -5.1047879563538723e-01 1.5206786460716741e+00 8.7538802718609754e-01  7.0889377383328889e-01 2.0633707771378997e+00 7.3165440190282505e-01  7.0092199654158860e-01 1.6661410201881168e+00 7.3672515097040803e-01  -1.9880062962029196e-01 3.0498884861568452e+00 9.6016674112307498e-01  -5.4818099653607955e-03 2.8457524687901983e+00 9.8162755260704782e-01  -1.0075827666281161e+00 2.1894946409927818e+00 1.7737067331632481e-01  9.9647876673909785e-01 -1.0892694796370395e-07 1.9821030067824444e-01  8.5817812167695962e-01 3.0469078096867519e+00 5.6678210059851364e-01  1.9820913356417566e-01 1.2525884713054157e-07 9.9648051845165153e-01  -1.9821733261047772e-01 7.1476736661290686e-08 9.9647812392618218e-01  5.6445656576040382e-01 2.7433014896319805e-08 8.4477606944941463e-01  1.9878192613657431e-01 3.0498766149754273e+00 9.6017766648542657e-01  8.4477387955117356e-01 -2.8523120972064170e-09 5.6445984800521332e-01  1.0047338356621733e+00 3.0467304279817657e+00 1.9834916099691238e-01  -5.7584026280820344e-01 3.0479825599368375e+00 8.4409237410474891e-01  -5.6446161343208445e-01 1.4425328945909923e-08 8.4477175407292893e-01  -6.9716268701327175e-02 2.4742791506184187e+00 9.9309529982511546e-01  9.4152039080577699e-01 2.8368747147003166e+00 4.0746301628332871e-01  5.6500504070344615e-01 2.5970163784339415e+00 8.4533695615666449e-01  7.1250749974987870e-01 2.4553192766270771e+00 7.3212845306037488e-01  8.4446736203022887e-01 2.6460834357458101e+00 5.8225800351597579e-01  3.6571490942300822e-01 1.6884812747519145e+00 9.4196960648352746e-01  -8.0128988519721067e-01 2.8779644113057681e+00 6.4267133402739474e-01  -3.3087780240985037e-01 1.8753447990673755e-01 9.6026077698601819e-01  -1.0060231463474556e+00 2.5764306140324078e+00 1.8956097399652308e-01  -8.8289831385309914e-01 1.6473750890277128e+00 5.1088964197499753e-01  -9.9915529105082568e-01 1.5450609030070936e+00 2.1043139844909559e-01  -1.0218374004826265e+00 1.7132895361269596e+00 -3.4974861266396337e-05  -7.6449352631928325e-01 1.6480049046175000e+00 6.7228892806785567e-01  -5.6362575258185577e-01 3.9008694676362032e-01 8.4478625811097141e-01  1.0233086224495154e+00 2.8562269793937411e+00 -2.1110118074949957e-05  -1.0190149560294457e+00 9.5162471676126459e-01 -1.7777203229351248e-05  1.0164929917804089e+00 1.9029787389869912e-01 -2.9383391031849499e-05  1.0218387309213779e+00 1.7132892051580884e+00 -2.1246635381847697e-05  1.0190195207419079e+00 9.5162435858595296e-01 -5.0240812423193356e-05  -1.0205142394373574e+00 1.3324143507602790e+00 -3.2492098030228574e-05  1.0231777524432581e+00 2.4752267230442264e+00 -1.6714608690568431e-05  -1.0231694133349074e+00 2.4752270595289585e+00 -1.8792499711945223e-05  7.3625758498355953e-01 2.8744600659189395e-01 7.0007675229423338e-01  -9.3181466806326174e-01 1.8808193898251764e+00 4.1937632188812091e-01  -7.7191699871785202e-01 6.3599256869072840e-01 6.6083746497937645e-01  -3.2131315817790501e-01 1.2087947509533410e+00 9.6014537406449130e-01  -7.1900384098645720e-01 1.9038898246313629e+00 7.2093639375926355e-01  -4.6363144295750575e-01 1.7703432048742525e+00 8.9949896306198318e-01  -6.3624685290741034e-01 2.4957654151993744e+00 7.9623769971210090e-01  5.1953943649744638e-01 8.9494712598145665e-01 8.7154805277712055e-01  1.8768240432275365e-01 2.3447385167222041e+00 9.8263083592160116e-01  5.3771633993759915e-01 1.8858475515537301e+00 8.5911889867314406e-01  9.5152125620448713e-01 2.4597266635423227e+00 3.7965690518931294e-01  1.0060375197288682e+00 2.2596127708075726e+00 1.8684917511786581e-01  1.0047676800077989e+00 1.8998788213809934e+00 1.8874195213905723e-01  -2.2820939884156288e-01 1.0507702821602216e+00 9.8678761706325169e-01  6.8564257947945817e-01 1.2463625097659268e+00 7.4957707497974402e-01  5.5498632706326834e-01 1.5168533504020707e+00 8.4870585123604048e-01  -2.0504925606413002e-01 4.3527365225248732e-01 9.9412305172538473e-01  -9.4381386146238111e-01 1.5222784293382570e+00 3.8768456689951197e-01  -9.3667310990293362e-01 2.3178149247255626e+00 4.1371326110991163e-01  -1.0048453616354271e+00 6.5413117072092708e-01 1.6187314575513453e-01  4.2532727840040391e-02 2.1104815183817354e+00 1.0011457592590502e+00  5.6745146582340156e-01 4.3449269944712426e-01 8.4216924859451381e-01  2.3860132161600076e-01 4.1067964585029532e-01 9.8668882086439935e-01  9.9597786978802350e-01 2.6564675901832424e+00 2.3841015178785796e-01  8.2910070948540227e-01 2.2742729770463370e+00 5.9912414171934669e-01  -6.1022832800814342e-01 2.6691483071522546e+00 8.1684500868717036e-01  -5.8030559466724085e-01 1.9046038731895116e+00 8.3232883401781133e-01  9.3874857000389733e-01 2.0781032857447621e+00 4.0617009370572366e-01  -4.7227568857832452e-03 1.3490626135701205e+00 1.0104457979573749e+00  3.6841480553332939e-01 2.3966645679152991e+00 9.3664784732108941e-01  3.8321649083842207e-01 2.0567353564808859e+00 9.3324894637545019e-01  1.8681608458212429e-02 1.7900254445290517e-01 1.0154583187045507e+00  -8.4119177715194859e-01 2.6152707560756658e+00 5.8657006452101756e-01  1.8026327508898218e-01 1.8728108781460966e+00 9.9007015961501710e-01  3.6596608625186811e-01 2.7465145566925471e+00 9.3594597613836883e-01  -3.1393190380010422e-01 5.6769047337157030e-01 9.6504147947817387e-01  -4.8118116012110657e-01 5.6505805874397586e-01 8.9383908717329530e-01  6.1882956711517716e-02 2.6883275443643666e+00 9.8776190162761091e-01  -1.8227287804142275e-01 2.3395234600468053e+00 9.8360511596034850e-01  -8.8904827956910337e-01 6.3825045637574085e-01 4.9356942818869948e-01  -9.5099789853740102e-01 8.6695910059466974e-01 3.6312825486684153e-01  -4.1465656520797434e-01 2.4131901568223402e+00 9.1941173882453409e-01  -3.3459789001972945e-01 2.0945952576129341e+00 9.5006650645063073e-01  -1.0063779109623157e+00 2.8545908039070128e-01 1.4486838750428629e-01  7.8544472956582634e-01 1.3625843290004408e-01 6.4451460769572999e-01  -6.4129071628161771e-01 1.3893688048483477e-01 7.8792947498832633e-01  -1.0079146797531586e+00 1.7752823399993238e+00 1.6883961785310733e-01  1.0047002311508855e+00 1.3615292357107018e+00 1.7852234114839391e-01  -4.8795797925614881e-01 8.7050660366408283e-01 8.8949198134862806e-01  -5.8167267088950902e-01 7.3237868432894115e-01 8.3203646640029727e-01  7.6632182032939167e-03 1.7619091008425432e+00 1.0065621708582100e+00  -9.7251706148534023e-01 1.4030149758710328e-01 2.9495518157563838e-01  -6.8687915920677656e-01 2.8464644822317107e+00 7.6016567951938097e-01  1.0093967271927038e+00 8.5646303952518976e-01 1.3622915655746271e-01  -1.7899898502760656e-01 1.9289056393326314e+00 9.8967079259683888e-01  6.7029869350306781e-01 6.3460762040451213e-01 7.6306034458460981e-01  -9.0602709080206023e-01 3.5750097430900918e-01 4.6087579692510483e-01  2.3497450710664192e-01 2.6503287528143460e+00 9.6935113463216993e-01  8.0305347938652061e-01 1.5818657141034738e+00 6.2641109486793134e-01  4.8760117299137423e-01 1.1892631891828656e+00 8.8884187841510964e-01  -3.4192950032312219e-01 2.6438431196723804e+00 9.4379883134714893e-01  7.9929036594256997e-01 1.9645712498245869e+00 6.3415914548358832e-01  9.2611656590095703e-01 1.7481066611608924e+00 4.3015848678787882e-01  -7.3443271660698073e-01 4.5709946871443025e-01 7.0195906559314480e-01  2.1194157895146978e-01 7.4549087352479659e-01 9.9172581080899369e-01  -6.3666847689637418e-01 2.1861847147682556e+00 7.9336291663778391e-01  -5.9122318306999799e-01 1.2425327132753865e+00 8.2472943731185566e-01  -7.0526539748660477e-01 1.0335287876532639e+00 7.3121284241111506e-01  -7.5871522116140255e-01 1.3451467218347917e+00 6.7723400267842437e-01  9.2416255592831009e-01 9.4223171456939414e-01 4.2671334104612341e-01  -9.4676210560571439e-01 1.1862818869273921e+00 3.7688671744141178e-01  8.9617489280851448e-01 1.2578796709246565e-01 4.7895447220296988e-01  9.1056670255777528e-01 3.8617089818787215e-01 4.5197705435869245e-01  -6.3406878494215468e-01 1.5838288505881559e+00 7.9313840281071368e-01  9.2521258561690500e-01 1.4508878385054487e+00 4.2888527731271281e-01  -8.6938758972104968e-01 2.39609392001226