<?xml version="1.0"?>
<VTKFile type="UnstructuredGrid"  version="0.1"  >
<UnstructuredGrid>
<Piece  NumberOfPoints="758" NumberOfCells="1386">
<Points>
<DataArray  type="Float64"  NumberOfComponents="3"  format="ascii">-1.570796326794897 3.048 0  -1.570796326794897 0 0  1.570796326794897 0 0  1.570796326794897 3.048 0  0 0 0  0 3.048 0  -1.570796326794897 1.524 0  1.570796326794897 1.524 0  -0.04609926118424437 1.524 0  0.7853981633974483 0 0  0.7623485328053261 2.262242601661362 0  -0.7853981633974483 0 0  -0.7853981633974483 3.048 0  0.392699081698724 0.7745759241961347 0  -1.570796326794897 0.762 0  -0.8084477939895706 2.0955 0  -0.68277245543452 0.8915343570675713 0  0.7853981633974483 3.048 0  0.778743707341909 1.468410948960538 0  2.780093748954961e-16 2.285302774973185 0  -1.570796326794897 2.286 0  1.570796326794897 0.762 0  1.570796326794897 2.286 0  -0.9375370967763674 1.47348297960658 0  0.9831575747762593 0.9003629142671278 0  -0.3926990816987241 0.4064697549061488 0  1.177419588818055 1.905 0  0.3692901340097942 1.880893989147954 0  -0.4920225169641509 2.564371687128368 0  0.3926990816987241 3.048 0  1.178097245096172 0 0  1.155705348811136 2.643920532523289 0  -1.178097245096172 3.048 0  -1.178097245096172 0 0  -0.1391296372266528 0.8873724190154949 0  -1.10527745318919 2.528282743051346 0  -0.9817477042468103 0.4742759268549471 0  -0.3416666987802651 1.923944646262223 0  -1.570796326794897 1.905 0  -1.156555306160469 1.030861936336814 0  0.7648449098493205 0.4764142032227 0  0.3926990816987241 0 0  -0.4820376416180818 1.326151321396512 0  0.06374421723344185 0.4545169930886408 0  0.1972735722393064 1.163324878565267 0  0.3900417218314142 2.566922767651637 0  1.570796326794897 0.381 0  1.188877612935585 1.295195418509834 0  1.179914028402171 0.5308585702661928 0  0.7660075594126428 1.865233039449035 0  0.6330293131838399 1.095171663968746 0  -1.201232463242587 2.144287146570887 0  -0.3926990816987241 0 0  -0.3926990816987241 3.048 0  1.178097245096172 3.048 0  0.7684409382397209 2.649499271873753 0  -1.236954997304436 1.7145 0  -0.1088573452899617 2.666651387486592 0  -1.570796326794897 1.143 0  -1.570796326794897 0.381 0  1.570796326794897 1.143 0  1.570796326794897 1.905 0  1.570796326794897 2.667 0  -1.570796326794897 2.667 0  -0.6730839067294777 1.743003792473746 0  1.199831389396789 2.275437921225198 0  0.3936837537618041 1.495643752599615 0  0.01539369169800942 1.928544709491661 0  0.4156551272669651 0.4219033286010089 0  0.3401546043708642 2.225103550856524 0  -0.3379897306391274 2.262671266279809 0  -1.23624174049596 0.7000907110925838 0  -1.265224057170889 1.360131453617764 0  -0.1224339018241312 1.210043725539656 0  1.289286200625578 0.9918698881707442 0  -0.7751142346211329 1.197848666814478 0  1.003546186550495 0.2660297686099683 0  0.1963495408493621 2.808538634159524 0  -0.8079023568959116 2.703551618159924 0  -0.3480226984353056 1.610059855391589 0  1.075147893506229 1.598068412087719 0  -0.8290627893979112 2.399544545867518 0  0.6965048925255637 0.7972100472372819 0  -1.257765094876752 0.3107645483825858 0  -0.6724835324263325 0.5684215760013651 0  -0.3995059642389676 0.7173610149075536 0  0.9136951972244611 1.187564504803626 0  -0.964259350608907 0.8095514380783081 0  -0.7565990314517038 0.2897049735129544 0  -0.9603859887840651 1.834914433810327 0  -0.1457055965762301 0.2521630699436873 0  0.1963495408493621 0.2041911848053476 0  0.6241974196550791 0.231695999252114 0  -0.4098815011312292 1.029160072548571 0  0.9592800715482012 2.452820690856482 0  0.9648684169153161 2.840751931000357 0  0.5890486225480862 3.048 0  0.164631037784102 1.698913854044779 0  0.5664480837073581 2.070920238540226 0  1.374107957806476 1.7145 0  0.9861079629544779 2.102471438422718 0  -1.374446785945534 3.048 0  -1.288827800789186 2.762781313597598 0  1.353232957571468 2.835634774483438 0  1.302158670506274 0.2650078124691045 0  0.1394669809465775 0.8907702620243092 0  -0.5631487221059602 2.830992231257464 0  1.372837635547072 2.483038902756259 0  -0.1493395228831287 0.618617259260858 0  -1.32327048447753 2.378769394323546 0  0.56080204725298 1.699622905297025 0  1.570796326794897 2.0955 0  0.5403456747786348 2.786446773498672 0  -0.9817477042468103 0 0  -0.5847039960246873 2.326882432521036 0  0.1225428891326576 2.526494255738436 0  -0.9817477042468103 3.048 0  -0.5522901559753841 2.071668786267058 0  -1.370864794258017 0.9075071715671403 0  -1.043891045637083 1.250611220450313 0  -0.1652643923634778 2.09141301924679 0  -1.044446740946883 2.764982067459552 0  -0.1610370079820225 1.763280243096074 0  -0.3136912237752232 2.810498886211121 0  0.5400974078002052 2.370472734822523 0  -0.7009161718414544 1.427243880175582 0  0.902907438200502 0.6735032943420574 0  -0.9879196222361604 0.2371379634274736 0  1.319268546233604 0.7412771512308228 0  0.5578373583610097 0.608241627784878 0  0.5756483102040615 1.332636919938113 0  -0.5281701577409 0.2032348774530744 0  -0.266729509930448 2.489223923247521 0  -1.570796326794897 0.5715 0  -0.2430656531629531 1.405631921096758 0  0.253622337931223 0.5884397663452474 0  1.284044721043478 1.50372037617638 0  1.570796326794897 1.3335 0  -0.9904333867980613 2.235882060371517 0  0.9871146764618406 1.395690276854986 0  -1.374446785945534 0 0  0.3981951765262902 1.020833864419675 0  0.1670583512016766 1.405384478716078 0  -1.330327693484763 1.938638984813805 0  0.2106653067452682 2.040805097078886 0  1.570796326794897 0.5715 0  1.334822181490566 2.081373939821734 0  -0.9303227889097604 1.033236710715967 0  -1.34639228476592 1.150776798768373 0  -1.570796326794897 0.1905 0  1.106697207481837 1.099709897393925 0  0.4137866939027022 0.2104288000383385 0  -1.570796326794897 2.0955 0  0.9761377489246634 0.4754251272674608 0  1.377108465632662 0.4605024587280874 0  1.108114944719677 0.7297638044096917 0  0.3695908229138113 1.285681859811955 0  0.9799112840676307 1.800306505551499 0  -0.001696842075803034 1.042028929293442 0  1.366537356420357 1.185723700290463 0  -1.385029840108318 0.47625 0  0.05842649915411911 0.6874537157920781 0  -1.183268988745763 0.4997334438341218 0  -0.6073502281622543 1.081347079085406 0  -1.026941765261019 2.031536576622642 0  -1.570796326794897 2.8575 0  0.8159726599830506 1.011928543199529 0  0.7652782693277244 2.849245002237192 0  -0.5252326280373281 1.520125074885265 0  0.7648326174724897 2.063743853392348 0  0.757099741434616 1.666331708950521 0  -0.1963495408493621 3.048 0  -0.005410422648647092 2.843333256403111 0  -1.395368347654653 2.19075 0  1.374446785945534 0 0  0.9817477042468103 3.048 0  0.1963495408493621 0 0  -0.1963495408493621 0 0  0.5890486225480862 0 0  0.1963495408493621 3.048 0  0.9817477042468103 0 0  1.374446785945534 3.048 0  -0.5890486225480862 3.048 0  -0.5890486225480862 0 0  -0.06865319188571758 2.471928549109083 0  1.159049337209348 2.838090892449816 0  0.5817075150535711 2.596909954318943 0  0.7656515661107315 2.455866896253367 0  0.9620790410056582 2.647119292933887 0  0.3676829480103987 1.68739481709134 0  -0.8886101495223063 2.878912500124773 0  -0.3317793704126089 0.1873756770788371 0  -1.383208664444332 2.577695923010364 0  -1.043597917648523 1.648216005744782 0  -1.362178343413552 1.546177620526679 0  -1.570796326794897 1.7145 0  -0.8462722504471433 1.648434957877788 0  -0.588076822054871 0.3899352838051667 0  1.570796326794897 2.8575 0  -1.570796326794897 0.9525 0  1.570796326794897 0.1905 0  1.570796326794897 1.7145 0  1.570796326794897 0.9525 0  -1.570796326794897 1.3335 0  1.570796326794897 2.4765 0  -1.570796326794897 2.4765 0  0.8103777117362174 0.287468585434799 0  -1.145334531235929 1.881885620422454 0  -0.8620560674467429 0.6361265362229395 0  -0.321688879263093 1.207848147265888 0  -0.7798551871678058 1.904240998338365 0  -0.4724954359209014 1.769587110195458 0  -0.667402576232105 2.495985359319255 0  0.5365063314111709 0.8945566719544227 0  0.1855702280441107 2.342745654422604 0  0.55510120733165 1.88540118775351 0  1.188295809121239 2.460939894898248 0  1.38587897409014 2.260870763688798 0  1.383978812419919 1.901097375082534 0  -0.2265735189171196 1.049795314962436 0  0.7387890113368257 1.246392780742437 0  0.5763234466275948 1.516457524623135 0  -0.203279258075353 0.4348372558382012 0  -1.179202350299698 1.523245956950107 0  -1.151844216720993 2.318990544544152 0  -1.410806081599612 0.6547540757597369 0  0.04190096621848406 2.108399609871347 0  0.5925649981629265 0.4343292987553075 0  0.2371113691258682 0.4102816185532077 0  1.334103818253725 2.657728219912091 0  0.9405077369493808 2.275181409651143 0  -0.633962040105568 2.669303984283053 0  -0.6045614816381242 1.904349918307267 0  1.159697673803787 2.079238591118184 0  -0.004643801590645341 1.347662554528907 0  0.3691400131247499 2.395423267764724 0  0.3855005143298051 2.055603978165229 0  0.01839821075864462 0.1788084577298442 0  -0.9568120219060965 2.61629404172056 0  0.1783135820912846 1.871116340262054 0  0.3649950158263953 2.745288921627024 0  -0.3142054567155264 0.5671999812317062 0  -0.4933549623779417 0.564740705097546 0  0.06092775470575962 2.685867440722903 0  -0.1801827362748675 2.337517890002858 0  -1.063355415037434 0.6386189748554 0  -1.205242865599393 0.8676070232612285 0  -0.4176020549597784 2.412196127179313 0  -0.3347051678178828 2.093252344225509 0  -1.427772711006951 0.2857500000000001 0  0.8835729338221293 0.1362887052191026 0  -0.6831011505337878 0.1389086130988801 0  -1.403875662049666 1.77648180985222 0  1.394165436236593 1.362588987767805 0  -0.5007942298153729 0.8700626692351643 0  -0.6093220848169366 0.7321530406295067 0  0.007534593095922887 1.760126887057542 0  -1.276272015520854 0.140425968067263 0  -0.7270478511000733 2.847016806985676 0  1.436331331726002 0.85725 0  -0.1770320080670663 1.927167796173981 0  0.7200726153501196 0.6345534912379586 0  -1.099983122078282 0.3577316115390257 0  0.2324759135153202 2.648405702327079 0  0.9054371869972004 1.582409569434113 0  0.5000672234640285 1.188708149930449 0  -0.340793734207542
[...]
<PointData  Vectors="phi"> 
<DataArray  type="Float64"  Name="phi"  NumberOfComponents="3" format="ascii">-1.0467304993711575e+00 3.0418294356381268e+00 -2.0977776653424992e-05  -1.0160070557205840e+00 -5.2356014604629787e-08 -9.9929886297303982e-06  1.0160072655338510e+00 -3.8022963684429436e-08 -1.1851141812325538e-05  1.0467553084465713e+00 3.0418301952358604e+00 -1.1032386120226008e-05  -6.0260389235513891e-06 1.1528777957087331e-08 1.0160062363628946e+00  -1.2876155560290906e-05 3.0016955941336341e+00 6.8094811108895481e-01  -1.0360392723464582e+00 1.5187882814958324e+00 -1.7790025369428893e-05  1.0360509904644251e+00 1.5187871695727229e+00 -2.5795847001133655e-05  -4.6788106648473334e-02 1.5302596190619020e+00 9.7873519596675085e-01  7.1842679958974154e-01 7.3099101784282901e-08 7.1841646586730357e-01  7.3062763470734005e-01 2.2607061239665955e+00 7.3048685203538921e-01  -7.1842469677306919e-01 -1.4528254876052507e-07 7.1841794710275531e-01  -7.7380909002796505e-01 3.0456380908060123e+00 7.2036480118147661e-01  3.8939998873708564e-01 7.7694836992026317e-01 9.3096340497131524e-01  -1.0242444697038418e+00 7.5885975035266551e-01 -1.9400578976376960e-05  -7.6132534163604904e-01 2.0935039520380720e+00 6.9867746573581191e-01  -6.4505156483095527e-01 8.9192230938978401e-01 7.8450464904796013e-01  7.7385636204770103e-01 3.0456801265389477e+00 7.2046404748948523e-01  7.2631696348229524e-01 1.4675795704847343e+00 7.1893351288649787e-01  -2.7625677454525661e-06 2.2921584377523265e+00 9.3291757164468148e-01  -1.0459167069385347e+00 2.2799453625496278e+00 -2.2014160361956712e-05  1.0242514795356537e+00 7.5885883184606850e-01 -3.0912736974608271e-05  1.0459282493717970e+00 2.2799463915268081e+00 -5.2996844184218899e-05  -8.3510413401090244e-01 1.4709954150201416e+00 5.9989786460044958e-01  8.5302983244177633e-01 8.9854284820004415e-01 5.6260805784532864e-01  -3.8872866830338576e-01 4.0778049952789952e-01 9.3530184592971244e-01  9.6560383725354837e-01 1.9000158090451571e+00 3.8992506040689107e-01  3.7074832802054819e-01 1.8855725122732092e+00 9.1353263434949328e-01  -4.9665941559694005e-01 2.5677276887816851e+00 8.5578716350972461e-01  3.9038217325657215e-01 3.0410778200655337e+00 7.7268035888489839e-01  9.3865997815252211e-01 -1.2822659317849192e-07 3.8880632877256094e-01  9.7334053086439487e-01 2.6380296518311126e+00 4.1281606138619759e-01  -9.9059082869297477e-01 3.0417818792996836e+00 3.9381604952303423e-01  -9.3865702319091682e-01 -2.7102937690991755e-07 3.8881409572804571e-01  -1.4079352764387235e-01 8.9131543992835693e-01 9.9231654174771633e-01  -9.5004531116032753e-01 2.5227177270904679e+00 4.5911907270894570e-01  -8.4769672276613328e-01 4.7329518368850237e-01 5.6432999604848932e-01  -3.4387506170726612e-01 1.9289974617703416e+00 9.1929414754562766e-01  -1.0417192986070309e+00 1.8992201666153954e+00 -2.4308516424087513e-05  -9.4084816552985528e-01 1.0278009832661379e+00 4.0887909834671560e-01  7.0524142280413737e-01 4.7630408589486095e-01 7.3197330729949384e-01  3.8881353516349504e-01 2.0934797982470707e-07 9.3866162088099869e-01  -4.7481788852076673e-01 1.3288170130562085e+00 8.8647974495338433e-01  6.4616527164977344e-02 4.5674683544910982e-01 1.0080380621987670e+00  1.9920079677839220e-01 1.1679945483253680e+00 9.7612324429066433e-01  3.9527265674986661e-01 2.5714022535502252e+00 8.7648563972930527e-01  1.0199229745788223e+00 3.7932939798159332e-01 -1.9493414492111689e-05  9.5822118042777771e-01 1.2913437454394883e+00 3.7866151289143879e-01  9.4381150043533057e-01 5.2910516827870002e-01 3.8727861531428065e-01  7.2401938055969761e-01 1.8641275458818272e+00 7.2709863006423059e-01  6.0604156405924714e-01 1.0960600779599139e+00 8.1302854701392357e-01  -9.7930589258115264e-01 2.1388463825222903e+00 3.6784778364434817e-01  -3.8880329451816731e-01 4.3751272178394530e-09 9.3866141496315048e-01  -3.9038162073897203e-01 3.0411625402578344e+00 7.7305350381339588e-01  9.9056387059422690e-01 3.0417851233412696e+00 3.9381099334050179e-01  7.4806410281180868e-01 2.6474728389681985e+00 7.2996782936586946e-01  -9.8328688124834618e-01 1.7095786426634501e+00 3.3314551318750729e-01  -1.1005837800650309e-01 2.6658190079589006e+00 8.6045204038548428e-01  -1.0299144958909821e+00 1.1386715912051828e+00 -2.6799944422348159e-05  -1.0199207134058850e+00 3.7932987499065468e-01 -2.5098596438580222e-05  1.0299235821238966e+00 1.1386702483939799e+00 -9.7992390141926597e-06  1.0417299793918293e+00 1.8992201040381569e+00 -5.1482346874958898e-05  1.0476301414602240e+00 2.6608785213875095e+00 -2.2098741228515697e-05  -1.0476244532545438e+00 2.6608776620466008e+00 -2.2989799735303683e-05  -6.4732827399438342e-01 1.7433144082426832e+00 7.8539781761818916e-01  9.8144052516641533e-01 2.2698343268730512e+00 3.6948464663715130e-01  3.9259752738159459e-01 1.4995228511687222e+00 9.1682364519034065e-01  1.5624903425443919e-02 1.9356268610257841e+00 9.5836796547881753e-01  4.1022846255906326e-01 4.2318360549925604e-01 9.2616848227788073e-01  3.4403676362660113e-01 2.2304079691431533e+00 9.0792030670817869e-01  -3.4215579382239830e-01 2.2680052837880047e+00 9.0669764837801714e-01  -9.6626120273505767e-01 6.9765242902074476e-01 3.3376300772281531e-01  -9.8587199015103999e-01 1.3558096543684552e+00 3.0574955812699955e-01  -1.2403252200696799e-01 1.2151764601971908e+00 9.8526143828568691e-01  9.8694672981046139e-01 9.8840010419370217e-01 2.8235812459347981e-01  -7.1964279077883331e-01 1.1972955838469508e+00 7.2222298050201517e-01  8.5837998650217029e-01 2.6543714794787687e-01 5.4603611645660255e-01  1.9740022337976165e-01 2.8017177992690301e+00 8.1741050420945927e-01  -7.8068452973503444e-01 2.7007452156196723e+00 7.0461480660622389e-01  -3.4889196701262370e-01 1.6146158051747406e+00 9.2789897558381518e-01  9.1411349002738851e-01 1.5942411294453465e+00 4.8308223108946069e-01  -7.8516818428996049e-01 2.3968030015947428e+00 6.8625405682042095e-01  6.5522645364845622e-01 7.9748034995842754e-01 7.7633854220957166e-01  -9.6935748760278528e-01 3.0960607311055144e-01 3.1313843370160555e-01  -6.3459641872638539e-01 5.6877452008954799e-01 7.9270504079679038e-01  -3.9569168087793533e-01 7.1954103408123671e-01 9.2921077276200081e-01  8.1522990103175530e-01 1.1857535712478897e+00 6.1905922826618864e-01  -8.4092328064232535e-01 8.0801257562473083e-01 5.7849757312916483e-01  -6.9818724227179219e-01 2.8966674318942010e-01 7.3827588729613880e-01  -8.5668026639826755e-01 1.8315798554869844e+00 5.8186540691114186e-01  -1.4735880805622470e-01 2.5335594969811842e-01 1.0023583996175145e+00  1.9803413105514880e-01 2.0511373949132330e-01 9.9435447318124637e-01  5.9398588582915923e-01 2.3196047402558284e-01 8.2359501042084304e-01  -4.0626544708171464e-01 1.0320176657938518e+00 9.2055739252527957e-01  8.7288253568958662e-01 2.4483995403123346e+00 5.8637382527052295e-01  8.9080778803844107e-01 2.8356432466213568e+00 5.8658205574555311e-01  5.8877304575417666e-01 3.0489156959588724e+00 7.8927582536846097e-01  1.6672507400393960e-01 1.7051586243243926e+00 9.6128279703737274e-01  5.5952569526596552e-01 2.0727882693667388e+00 8.3831980193317546e-01  1.0196494098741640e+00 1.7091639194854784e+00 1.9865997406024530e-01  8.7834148698354797e-01 2.0984224489279151e+00 5.6154293477645323e-01  -1.0334125350255432e+00 3.0417910968158162e+00 1.9902305559116923e-01  -1.0155966668548400e+00 2.7566354071838548e+00 2.8414741841921554e-01  1.0292990123729224e+00 2.8294658810689568e+00 2.2012597137092438e-01  9.8196592273459893e-01 2.6397162817669612e-01 2.6992253689789780e-01  1.4110998771306676e-01 8.9472652197846170e-01 9.9218891072055670e-01  -5.6595427972971513e-01 2.8329478777895805e+00 8.1666001043369552e-01  1.0299376073782365e+00 2.4769700241259676e+00 2.0017413840900700e-01  -1.5099876768277748e-01 6.2146053920900923e-01 9.9647919004381524e-01  -1.0188072593104096e+00 2.3728016574372988e+00 2.4945655757049182e-01  5.4954072969798262e-01 1.7015527440512992e+00 8.4531923019866850e-01  1.0440920992869989e+00 2.0895482232483684e+00 -2.2904475776550999e-05  5.4381603194428096e-01 2.7888105970224899e+00 8.2612699306148296e-01  -8.4477357195535607e-01 -5.5611855297056664e-08 5.6446152039338293e-01  -5.8079961391778068e-01 2.3284528148719938e+00 8.2795685588008838e-01  1.2443373983423436e-01 2.5308733968138819e+00 8.9748409272310870e-01  -9.0878486804735148e-01 3.0425410814980887e+00 5.7535615622691527e-01  -5.4661397321609517e-01 2.0737743599038727e+00 8.4463735477568547e-01  -1.0057391302531269e+00 9.0408180753445133e-01 2.0190949707361289e-01  -8.9163242783564778e-01 1.2476951192884624e+00 5.1041512230435060e-01  -1.6774604849729552e-01 2.0981477536625857e+00 9.4053817866994538e-01  -9.2967139305632296e-01 2.7593854608087578e+00 5.1643053712159470e-01  -1.6314793503481370e-01 1.7696692874965230e+00 9.5867742803112943e-01  -3.1507986358701889e-01 2.8091836339207039e+00 8.3027694380642081e-01  5.4024652214855706e-01 2.3728683833105948e+00 8.4590577557064472e-01  -6.6534134920106425e-01 1.4273582421216002e+00 7.7014145621430063e-01  8.0188476341496762e-01 6.7253188949772502e-01 6.2846211997995260e-01  -8.4949927024415572e-01 2.3663845163977038e-01 5.5933971246781189e-01  9.9150769141289652e-01 7.3849239245939391e-01 2.5304127744610660e-01  5.3895354667507112e-01 6.0927476573624106e-01 8.5848240218702376e-01  5.5899946511921628e-01 1.3342458739171013e+00 8.4219945803519647e-01  -5.1197343136707463e-01 2.0365154108584332e-01 8.7654956484581237e-01  -2.7096980254079900e-01 2.4945632135540796e+00 8.9888850416665578e-01  -1.0218811265744656e+00 5.6906042535793400e-01 -1.5099590506534447e-05  -2.4504479407958268e-01 1.4107024311367449e+00 9.5996207724074845e-01  2.5477576349991976e-01 5.9086759192033655e-01 9.7667395119431522e-01  9.9407969044685185e-01 1.4990202764357166e+00 2.8749152153330948e-01  1.0329857038370966e+00 1.3286892381452893e+00 -1.4545993101895831e-05  -8.8435198623169242e-01 2.2315626077363948e+00 5.5863277693809921e-01  8.6316685672767923e-01 1.3929142191816353e+00 5.5904967513287407e-01  -9.9647738250275264e-01 -3.1864180720705381e-07 1.9820733666362836e-01  3.9520241704865611e-01 1.0237680850410549e+00 9.2503458843378328e-01  1.6902082041909811e-01 1.4109190702136840e+00 9.7301690608417568e-01  -1.0138661167587932e+00 1.9330793430906188e+00 2.4221057489765965e-01  2.1350400202164174e-01 2.0472237701572342e+00 9.3836995810335455e-01  1.0218857786011848e+00 5.6905979355638547e-01 -2.6503612266957569e-05  1.0172007385731279e+00 2.0756378547705427e+00 2.3782959643818580e-01  -8.2335869902908010e-01 1.0315390644706308e+00 6.0595295130700666e-01  -1.0042064322165354e+00 1.1467115605850804e+00 2.2619696245139062e-01  -1.0178570430062350e+00 1.8966246638671411e-01 -3.3647086537209898e-05  9.2003019715491063e-01 1.0967364835368338e+00 4.5456990923211438e-01  4.0834430951607642e-01 2.1107424645369624e-01 9.2876448172447479e-01  -1.0440860602234650e+00 2.0895484505780066e+00 -3.1297043407232719e-05  8.4449903589088304e-01 4.7446244850761188e-01 5.6904007371924625e-01  1.0014624441930164e+00 4.5861760322015588e-01 1.9576610326608759e-01  9.1543033124549467e-01 7.2768898074459931e-01 4.5344019752931441e-01  3.6869236479420248e-01 1.2894282951392135e+00 9.2968945197417663e-01  8.6740211590784821e-01 1.7968543038195588e+00 5.6562525892832449e-01  -1.7277691011149130e-03 1.0467691505857142e+00 9.9711698056349019e-01  1.0091998235434361e+00 1.1815156444240658e+00 2.0619907238305096e-01  -1.0031557342866901e+00 4.7429540565898831e-01 1.8784539771997111e-01  5.9240585973319139e-02 6.9073733415701466e-01 1.0042616174577577e+00  -9.4481567833023539e-01 4.9806894773863652e-01 3.8414596997410427e-01  -5.8426906787704103e-01 1.0824799410779173e+00 8.2768800402502318e-01  -8.9911546174196000e-01 2.0272733836200003e+00 5.2641859624101883e-01  -1.0476232800901235e+00 2.8513626434374868e+00 -3.2715538484569131e-05  7.4702016100062496e-01 1.0111611873305453e+00 6.9378218878465514e-01  7.5186832983181418e-01 2.8472523308687840e+00 7.3247911022732681e-01  -5.1570424831362449e-01 1.5224577465422264e+00 8.6438240768180552e-01  7.2749213645403066e-01 2.0624143096665137e+00 7.2810935560241052e-01  7.1330156549719803e-01 1.6655632527122233e+00 7.3317669908538763e-01  -1.9769607188581448e-01 3.0200683572065521e+00 7.1932676938965656e-01  -5.4911479556947473e-03 2.8269604877501111e+00 7.8811672179586689e-01  -1.0306051341495104e+00 2.1848256267410706e+00 1.7750135273042497e-01  9.9647736595971825e-01 -4.1897318881126192e-07 1.9821005713440282e-01  9.0876875433448601e-01 3.0425334360095011e+00 5.7536173351109265e-01  1.9820925735061740e-01 5.9420136239870034e-07 9.9648365870051370e-01  -1.9821722792673233e-01 3.2053647782765565e-07 9.9647944674128719e-01  5.6445640651249462e-01 1.0001811734968128e-07 8.4477635665501571e-01  1.9765310746603487e-01 3.0199703117473624e+00 7.1912566442300552e-01  8.4477552957493252e-01 -2.6919843243168282e-08 5.6446058515906150e-01  1.0334321807115376e+00 3.0417867376854564e+00 1.9903266401398959e-01  -5.8879954332926265e-01 3.0489502721933182e+00 7.8946634850017139e-01  -5.6446126854542866e-01 6.8201304792715961e-08 8.4477006854978343e-01  -6.9827147499418110e-02 2.4771633976543006e+00 9.0830919170448787e-01  9.7930421962748260e-01 2.8320198320573962e+00 4.1077490471541550e-01  5.8321730489515322e-01 2.5987042712154875e+00 8.2526169812254957e-01  7.3910093520184972e-01 2.4540593195106060e+00 7.2982055023509651e-01  8.8153631063017923e-01 2.6423241705008449e+00 5.8633485531109364e-01  3.6830039130641323e-01 1.6918516419307441e+00 9.1992736802847708e-01  -8.4509102907753764e-01 2.8746659115909288e+00 6.4842561085705652e-01  -3.3073471608940913e-01 1.8806887353247814e-01 9.5905367552612564e-01  -1.0324585395225192e+00 2.5715913452913512e+00 1.8984013251090590e-01  -8.9915549565688424e-01 1.6445198702321522e+00 5.1094677350214734e-01  -1.0143589380558602e+00 1.5411673652153284e+00 2.1053995059727684e-01  -1.0389981518468929e+00 1.7089648181452592e+00 -3.5141240902210318e-05  -7.7844930213561003e-01 1.6466050551106295e+00 6.7062281135970458e-01  -5.6412363827969414e-01 3.9050817469037158e-01 8.4351908376037554e-01  1.0476070151139079e+00 2.8513658338388943e+00 -2.0740852592109307e-05  -1.0269669298233945e+00 9.4872934373104312e-01 -1.7806042680660217e-05  1.0178554752960898e+00 1.8966172538189285e-01 -2.9422141335143622e-05  1.0390055029829570e+00 1.7089642955929931e+00 -2.1227826527552924e-05  1.0269782910896990e+00 9.4872794645684633e-01 -5.0265994310997538e-05  -1.0329763462838855e+00 1.3286906233793720e+00 -3.2559071027749584e-05  1.0471290330676768e+00 2.4703948806491125e+00 -1.6263268394301413e-05  -1.0471082751528982e+00 2.4703950290130856e+00 -1.9725726475422145e-05  7.3707621033164661e-01 2.8728860044167981e-01 6.9990724143046168e-01  -9.5213724097273134e-01 1.8771035360904365e+00 4.1981305126860846e-01  -7.7487147265968848e-01 6.3542180993897157e-01 6.6035880526522872e-01  -3.2215769193605093e-01 1.2118310270211243e+00 9.4621163780736794e-01  -7.3544683811888090e-01 1.9028946495875263e+00 7.1784228788319748e-01  -4.6909894739288005e-01 1.7727918873939545e+00 8.8235096503841137e-01  -6.5878312933969185e-01 2.4959868494120161e+00 7.8753534848736395e-01  5.2156142572316122e-01 8.9614455252580527e-01 8.6683864943292421e-01  1.8873414380085160e-01 2.3490738655548893e+00 9.2091874030003129e-01  5.4663784946779936e-01 1.8874376528635104e+00 8.4566102906953511e-01  9.8108815610320421e-01 2.4551597593133541e+00 3.8102121442375531e-01  1.0298632969537105e+00 2.2549092669563922e+00 1.8701040741597777e-01  1.0245312164076610e+00 1.8954758000610556e+00 1.8885256899551064e-01  -2.2833512853165189e-01 1.0539552675192168e+00 9.7359685678727137e-01  6.9273690240548247e-01 1.2461771501330527e+00 7.4662335589376028e-01  5.6136246992833516e-01 1.5181307256050316e+00 8.3983344762714363e-01  -2.0488301436018022e-01 4.3677746845998316e-01 9.9005041747447065e-01  -9.5865467888128097e-01 1.5189517435158946e+00 3.8785283767142953e-01  -9.6432446048363452e-01 2.3135120056665643e+00 4.1492069122120268e-01  -1.0096935727333858e+00 6.5210475708330562e-01 1.6199213104557628e-01  4.2573771198611866e-02 2.1155415855453348e+00 9.4639005374128060e-01  5.6809738813930200e-01 4.3494522032101934e-01 8.4075099767428474e-01  2.3842917455279253e-01 4.1204408611033055e-01 9.8305643858009961e-01  1.0242636374636993e+00 2.6516099954944972e+00 2.3900852461103167e-01  8.5600862793130872e-01 2.2712627807838053e+00 6.0016162759670300e-01  -6.3298084202237637e-01 2.6700867069198622e+00 8.0217843112587450e-01  -5.9115002026455410e-01 1.9056200608570435e+00 8.2171253462589344e-01  9.6227433752400504e-01 2.0740655995632142e+00 4.0685437567039773e-01  -4.7219652278940498e-03 1.3534464401775548e+00 9.8683239538720835e-01  3.7401724552241888e-01 2.4004062770223218e+00 8.9373571944100039e-01  3.8770408603447748e-01 2.0602314667009245e+00 9.0348345644060513e-01  1.8666402767694268e-02 1.7969765756880396e-01 1.0138146282661187e+00  -8.7724390441538858e-01 2.6116013675909202e+00 5.9029917096394324e-01  1.8064197915148125e-01 1.8775767899381537e+00 9.5126615828876504e-01  3.6791066402833000e-01 2.7475343780149055e+00 8.4932780628932791e-01  -3.1394110442687845e-01 5.6932926343722756e-01 9.6037074748502727e-01  -4.8179576150704401e-01 5.6604271507308512e-01 8.9096741279877512e-01  6.1528681764209156e-02 2.6832018392449997e+00 8.5237224610263185e-01  -1.8327291708990173e-01 2.3438840245895416e+00 9.2182960779134526e-01  -8.9290869295473396e-01 6.3695718559302095e-01 4.9362204977594981e-01  -9.5752685562786077e-01 8.6477580235167850e-01 3.6325834430457210e-01  -4.2234246341538717e-01 2.4165838115507845e+00 8.8255617503220218e-01  -3.3787285251376797e-01 2.0985408959781511e+00 9.1454271097482231e-01  -1.0084787450030275e+00 2.8453097584370596e-01 1.4499606124170430e-01  7.8580438255876695e-01 1.3611948586081615e-01 6.4453009403264183e-01  -6.4142735232885828e-01 1.3898923477055089e-01 7.8773127439530166e-01  -1.0260418328599772e+00 1.7709949957010631e+00 1.6892490303474120e-01  1.0175198541147645e+00 1.3578903717593289e+00 1.7861370117595748e-01  -4.8956057965676170e-01 8.7189324352636655e-01 8.8437475726662829e-01  -5.8358323201247608e-01 7.3301059590993434e-01 8.2940136795922614e-01  7.6550830162554232e-03 1.7669632532718653e+00 9.6800740044932998e-01  -9.7330530340653798e-01 1.3989651070543421e-01 2.9506446652476775e-01  -7.1946093319840354e-01 2.8458706787727435e+00 7.5398012542865889e-01  1.0162580622860728e+00 8.5387282178285195e-01 1.3632111896876734e-01  -1.7942751126031142e-01 1.9337063271859192e+00 9.4854109881365833e-01  6.7244440994766175e-01 6.3465482775036952e-01 7.6180219256787152e-01  -9.0801561381767115e-01 3.5669739788952537e-01 4.6108467696557126e-01  2.3514110119264806e-01 2.6507395359360437e+00 8.7015839330167000e-01  8.1694123449461775e-01 1.5800491968222179e+00 6.2550187717812644e-01  4.9050065795374409e-01 1.1910129735116499e+00 8.8058541851600591e-01  -3.4491639676178398e-01 2.6463335181230176e+00 8.7061314920928945e-01  8.1935890200223160e-01 1.9623672564315391e+00 6.3360035725511477e-01  9.4432431926584326e-01 1.7446314180009310e+00 4.3045840970897364e-01  -7.3603147529729207e-01 4.5685481508562698e-01 7.0153773324608593e-01  2.1187980529866934e-01 7.4793713785333160e-01 9.8366753441834720e-01  -6.5380790297474711e-01 2.1863431300909677e+00 7.8532859707501601e-01  -5.9635266418375932e-01 1.2433350830377279e+00 8.1928092396924124e-01  -7.1069840641306992e-01 1.0332293232788237e+00 7.2925372177813741e-01  -7.6841910254337298e-01 1.3440941400228876e+00 6.7561778787651583e-01  9.3129528765030789e-01 9.4010517887744105e-01 4.2678097398264625e-01  -9.5702076114680246e-01 1.1834965938197131e+00 3.7699426759989141e-01  8.9668446088674270e-01 1.2552109495282227e-01 4.7904474830507476e-01  9.1276049240064883e-01 3.8528652500374283e-01 4.5218377439706875e-01  -6.4338441150081238e-01 1.5841525528832923e+00 7.8730750659313098e-01  9.3891088980968729e-01 1.4478620917161908e+00 4.2899345913283843e-01  -8.9954397782016438e-01 2.3923798251998