<?xml version="1.0"?>
<VTKFile type="UnstructuredGrid"  version="0.1"  >
<UnstructuredGrid>
<Piece  NumberOfPoints="758" NumberOfCells="1386">
<Points>
<DataArray  type="Float64"  NumberOfComponents="3"  format="ascii">-1.570796326794897 3.048 0  -1.570796326794897 0 0  1.570796326794897 0 0  1.570796326794897 3.048 0  0 0 0  0 3.048 0  -1.570796326794897 1.524 0  1.570796326794897 1.524 0  -0.04609926118424437 1.524 0  0.7853981633974483 0 0  0.7623485328053261 2.262242601661362 0  -0.7853981633974483 0 0  -0.7853981633974483 3.048 0  0.392699081698724 0.7745759241961347 0  -1.570796326794897 0.762 0  -0.8084477939895706 2.0955 0  -0.68277245543452 0.8915343570675713 0  0.7853981633974483 3.048 0  0.778743707341909 1.468410948960538 0  2.780093748954961e-16 2.285302774973185 0  -1.570796326794897 2.286 0  1.570796326794897 0.762 0  1.570796326794897 2.286 0  -0.9375370967763674 1.47348297960658 0  0.9831575747762593 0.9003629142671278 0  -0.3926990816987241 0.4064697549061488 0  1.177419588818055 1.905 0  0.3692901340097942 1.880893989147954 0  -0.4920225169641509 2.564371687128368 0  0.3926990816987241 3.048 0  1.178097245096172 0 0  1.155705348811136 2.643920532523289 0  -1.178097245096172 3.048 0  -1.178097245096172 0 0  -0.1391296372266528 0.8873724190154949 0  -1.10527745318919 2.528282743051346 0  -0.9817477042468103 0.4742759268549471 0  -0.3416666987802651 1.923944646262223 0  -1.570796326794897 1.905 0  -1.156555306160469 1.030861936336814 0  0.7648449098493205 0.4764142032227 0  0.3926990816987241 0 0  -0.4820376416180818 1.326151321396512 0  0.06374421723344185 0.4545169930886408 0  0.1972735722393064 1.163324878565267 0  0.3900417218314142 2.566922767651637 0  1.570796326794897 0.381 0  1.188877612935585 1.295195418509834 0  1.179914028402171 0.5308585702661928 0  0.7660075594126428 1.865233039449035 0  0.6330293131838399 1.095171663968746 0  -1.201232463242587 2.144287146570887 0  -0.3926990816987241 0 0  -0.3926990816987241 3.048 0  1.178097245096172 3.048 0  0.7684409382397209 2.649499271873753 0  -1.236954997304436 1.7145 0  -0.1088573452899617 2.666651387486592 0  -1.570796326794897 1.143 0  -1.570796326794897 0.381 0  1.570796326794897 1.143 0  1.570796326794897 1.905 0  1.570796326794897 2.667 0  -1.570796326794897 2.667 0  -0.6730839067294777 1.743003792473746 0  1.199831389396789 2.275437921225198 0  0.3936837537618041 1.495643752599615 0  0.01539369169800942 1.928544709491661 0  0.4156551272669651 0.4219033286010089 0  0.3401546043708642 2.225103550856524 0  -0.3379897306391274 2.262671266279809 0  -1.23624174049596 0.7000907110925838 0  -1.265224057170889 1.360131453617764 0  -0.1224339018241312 1.210043725539656 0  1.289286200625578 0.9918698881707442 0  -0.7751142346211329 1.197848666814478 0  1.003546186550495 0.2660297686099683 0  0.1963495408493621 2.808538634159524 0  -0.8079023568959116 2.703551618159924 0  -0.3480226984353056 1.610059855391589 0  1.075147893506229 1.598068412087719 0  -0.8290627893979112 2.399544545867518 0  0.6965048925255637 0.7972100472372819 0  -1.257765094876752 0.3107645483825858 0  -0.6724835324263325 0.5684215760013651 0  -0.3995059642389676 0.7173610149075536 0  0.9136951972244611 1.187564504803626 0  -0.964259350608907 0.8095514380783081 0  -0.7565990314517038 0.2897049735129544 0  -0.9603859887840651 1.834914433810327 0  -0.1457055965762301 0.2521630699436873 0  0.1963495408493621 0.2041911848053476 0  0.6241974196550791 0.231695999252114 0  -0.4098815011312292 1.029160072548571 0  0.9592800715482012 2.452820690856482 0  0.9648684169153161 2.840751931000357 0  0.5890486225480862 3.048 0  0.164631037784102 1.698913854044779 0  0.5664480837073581 2.070920238540226 0  1.374107957806476 1.7145 0  0.9861079629544779 2.102471438422718 0  -1.374446785945534 3.048 0  -1.288827800789186 2.762781313597598 0  1.353232957571468 2.835634774483438 0  1.302158670506274 0.2650078124691045 0  0.1394669809465775 0.8907702620243092 0  -0.5631487221059602 2.830992231257464 0  1.372837635547072 2.483038902756259 0  -0.1493395228831287 0.618617259260858 0  -1.32327048447753 2.378769394323546 0  0.56080204725298 1.699622905297025 0  1.570796326794897 2.0955 0  0.5403456747786348 2.786446773498672 0  -0.9817477042468103 0 0  -0.5847039960246873 2.326882432521036 0  0.1225428891326576 2.526494255738436 0  -0.9817477042468103 3.048 0  -0.5522901559753841 2.071668786267058 0  -1.370864794258017 0.9075071715671403 0  -1.043891045637083 1.250611220450313 0  -0.1652643923634778 2.09141301924679 0  -1.044446740946883 2.764982067459552 0  -0.1610370079820225 1.763280243096074 0  -0.3136912237752232 2.810498886211121 0  0.5400974078002052 2.370472734822523 0  -0.7009161718414544 1.427243880175582 0  0.902907438200502 0.6735032943420574 0  -0.9879196222361604 0.2371379634274736 0  1.319268546233604 0.7412771512308228 0  0.5578373583610097 0.608241627784878 0  0.5756483102040615 1.332636919938113 0  -0.5281701577409 0.2032348774530744 0  -0.266729509930448 2.489223923247521 0  -1.570796326794897 0.5715 0  -0.2430656531629531 1.405631921096758 0  0.253622337931223 0.5884397663452474 0  1.284044721043478 1.50372037617638 0  1.570796326794897 1.3335 0  -0.9904333867980613 2.235882060371517 0  0.9871146764618406 1.395690276854986 0  -1.374446785945534 0 0  0.3981951765262902 1.020833864419675 0  0.1670583512016766 1.405384478716078 0  -1.330327693484763 1.938638984813805 0  0.2106653067452682 2.040805097078886 0  1.570796326794897 0.5715 0  1.334822181490566 2.081373939821734 0  -0.9303227889097604 1.033236710715967 0  -1.34639228476592 1.150776798768373 0  -1.570796326794897 0.1905 0  1.106697207481837 1.099709897393925 0  0.4137866939027022 0.2104288000383385 0  -1.570796326794897 2.0955 0  0.9761377489246634 0.4754251272674608 0  1.377108465632662 0.4605024587280874 0  1.108114944719677 0.7297638044096917 0  0.3695908229138113 1.285681859811955 0  0.9799112840676307 1.800306505551499 0  -0.001696842075803034 1.042028929293442 0  1.366537356420357 1.185723700290463 0  -1.385029840108318 0.47625 0  0.05842649915411911 0.6874537157920781 0  -1.183268988745763 0.4997334438341218 0  -0.6073502281622543 1.081347079085406 0  -1.026941765261019 2.031536576622642 0  -1.570796326794897 2.8575 0  0.8159726599830506 1.011928543199529 0  0.7652782693277244 2.849245002237192 0  -0.5252326280373281 1.520125074885265 0  0.7648326174724897 2.063743853392348 0  0.757099741434616 1.666331708950521 0  -0.1963495408493621 3.048 0  -0.005410422648647092 2.843333256403111 0  -1.395368347654653 2.19075 0  1.374446785945534 0 0  0.9817477042468103 3.048 0  0.1963495408493621 0 0  -0.1963495408493621 0 0  0.5890486225480862 0 0  0.1963495408493621 3.048 0  0.9817477042468103 0 0  1.374446785945534 3.048 0  -0.5890486225480862 3.048 0  -0.5890486225480862 0 0  -0.06865319188571758 2.471928549109083 0  1.159049337209348 2.838090892449816 0  0.5817075150535711 2.596909954318943 0  0.7656515661107315 2.455866896253367 0  0.9620790410056582 2.647119292933887 0  0.3676829480103987 1.68739481709134 0  -0.8886101495223063 2.878912500124773 0  -0.3317793704126089 0.1873756770788371 0  -1.383208664444332 2.577695923010364 0  -1.043597917648523 1.648216005744782 0  -1.362178343413552 1.546177620526679 0  -1.570796326794897 1.7145 0  -0.8462722504471433 1.648434957877788 0  -0.588076822054871 0.3899352838051667 0  1.570796326794897 2.8575 0  -1.570796326794897 0.9525 0  1.570796326794897 0.1905 0  1.570796326794897 1.7145 0  1.570796326794897 0.9525 0  -1.570796326794897 1.3335 0  1.570796326794897 2.4765 0  -1.570796326794897 2.4765 0  0.8103777117362174 0.287468585434799 0  -1.145334531235929 1.881885620422454 0  -0.8620560674467429 0.6361265362229395 0  -0.321688879263093 1.207848147265888 0  -0.7798551871678058 1.904240998338365 0  -0.4724954359209014 1.769587110195458 0  -0.667402576232105 2.495985359319255 0  0.5365063314111709 0.8945566719544227 0  0.1855702280441107 2.342745654422604 0  0.55510120733165 1.88540118775351 0  1.188295809121239 2.460939894898248 0  1.38587897409014 2.260870763688798 0  1.383978812419919 1.901097375082534 0  -0.2265735189171196 1.049795314962436 0  0.7387890113368257 1.246392780742437 0  0.5763234466275948 1.516457524623135 0  -0.203279258075353 0.4348372558382012 0  -1.179202350299698 1.523245956950107 0  -1.151844216720993 2.318990544544152 0  -1.410806081599612 0.6547540757597369 0  0.04190096621848406 2.108399609871347 0  0.5925649981629265 0.4343292987553075 0  0.2371113691258682 0.4102816185532077 0  1.334103818253725 2.657728219912091 0  0.9405077369493808 2.275181409651143 0  -0.633962040105568 2.669303984283053 0  -0.6045614816381242 1.904349918307267 0  1.159697673803787 2.079238591118184 0  -0.004643801590645341 1.347662554528907 0  0.3691400131247499 2.395423267764724 0  0.3855005143298051 2.055603978165229 0  0.01839821075864462 0.1788084577298442 0  -0.9568120219060965 2.61629404172056 0  0.1783135820912846 1.871116340262054 0  0.3649950158263953 2.745288921627024 0  -0.3142054567155264 0.5671999812317062 0  -0.4933549623779417 0.564740705097546 0  0.06092775470575962 2.685867440722903 0  -0.1801827362748675 2.337517890002858 0  -1.063355415037434 0.6386189748554 0  -1.205242865599393 0.8676070232612285 0  -0.4176020549597784 2.412196127179313 0  -0.3347051678178828 2.093252344225509 0  -1.427772711006951 0.2857500000000001 0  0.8835729338221293 0.1362887052191026 0  -0.6831011505337878 0.1389086130988801 0  -1.403875662049666 1.77648180985222 0  1.394165436236593 1.362588987767805 0  -0.5007942298153729 0.8700626692351643 0  -0.6093220848169366 0.7321530406295067 0  0.007534593095922887 1.760126887057542 0  -1.276272015520854 0.140425968067263 0  -0.7270478511000733 2.847016806985676 0  1.436331331726002 0.85725 0  -0.1770320080670663 1.927167796173981 0  0.7200726153501196 0.6345534912379586 0  -1.099983122078282 0.3577316115390257 0  0.2324759135153202 2.648405702327079 0  0.9054371869972004 1.582409569434113 0  0.5000672234640285 1.188708149930449 0  -0.340793734207542
[...]
<PointData  Vectors="phi"> 
<DataArray  type="Float64"  Name="phi"  NumberOfComponents="3" format="ascii">-1.2340632237093980e+00 3.0282764411626610e+00 4.5093879623935072e-04  -1.0160111608638063e+00 1.0204078557468239e-07 -9.4244850564851679e-06  1.0160112455168577e+00 7.6197426692593378e-08 -1.1245858171666399e-05  1.2342339860097806e+00 3.0282321826125527e+00 3.6860385351587208e-04  -6.0983696466331344e-06 7.2026907360926874e-07 1.0160208065412850e+00  -9.5781589428154735e-04 2.5096495680127409e+00 -5.2131101361134580e-01  -1.0731601786002345e+00 1.5098438363534163e+00 -1.6860204582091730e-05  1.0736254946502266e+00 1.5097585153707924e+00 -2.5849490906355008e-05  -4.7004121189775240e-02 1.3345168606454973e+00 4.5404069897619009e-01  7.1842691394388236e-01 -2.0661725905293881e-07 7.1841652798491584e-01  6.1436547152832988e-01 2.1773160773916085e+00 3.3321743737535131e-01  -7.1842397517736967e-01 1.9861791289164663e-08 7.1841839153291298e-01  -5.9828503137201072e-01 2.8309202389782118e+00 -1.0195540079799406e-01  3.9692319063703591e-01 7.7856025352766967e-01 9.1919332426394984e-01  -1.0233116137445661e+00 7.5580941581958461e-01 -2.1684296171854302e-05  -6.7303691955700462e-01 2.0494196896630128e+00 4.3561706052825805e-01  -6.6500553272053209e-01 8.9430599939091726e-01 7.9080249250071988e-01  5.9768891656667722e-01 2.8302334046725255e+00 -1.0381856737550668e-01  7.2575287596858629e-01 1.4686124079572538e+00 6.6828500859152584e-01  -6.8176766312164506e-04 1.9296459165002346e+00 -2.3390738668655219e-02  -1.1838645932331011e+00 2.2635729741770407e+00 3.1646204626405049e-05  1.0233434772565959e+00 7.5578778579397832e-01 -3.0628300895861808e-05  1.1845259145949656e+00 2.2634310747328334e+00 -6.8050300772021710e-05  -8.6616920980676548e-01 1.4738638673378408e+00 5.9184247193403827e-01  8.7308010587491469e-01 8.9769030351281198e-01 5.6972196541779918e-01  -3.9247687958758837e-01 4.0884399926486253e-01 9.3201476262907701e-01  1.0250691203071838e+00 1.8961494090859308e+00 3.7875152398325229e-01  3.3339815529587569e-01 1.7039437184005970e+00 3.4420293633136806e-01  -4.1055140415546043e-01 2.3055090829518443e+00 5.7548426322666744e-03  3.3255124011172432e-01 2.6478749786120210e+00 -3.4320838643219220e-01  9.3865759294131201e-01 -4.2619801557824853e-07 3.8880533153604474e-01  9.3739667750544042e-01 2.6147945373796508e+00 2.5456729883586071e-01  -9.0687880661932740e-01 2.9861204548395768e+00 1.0015259431220727e-01  -9.3865730642694634e-01 -1.6632281487820181e-07 3.8881449143806629e-01  -1.3916436513242286e-01 8.7109394651901073e-01 8.9111725721024471e-01  -9.0405088412160872e-01 2.5006222625017966e+00 2.9642454796243467e-01  -8.5509557990977658e-01 4.7236009257342715e-01 5.6780568909307860e-01  -3.1262782501194381e-01 1.7268844410075850e+00 3.0419554012184252e-01  -1.1305155772377162e+00 1.8853377738526331e+00 -2.5615955126417110e-05  -9.5938694741433872e-01 1.0250663326359910e+00 4.1313173731489866e-01  7.1436614905056639e-01 4.7630443689854496e-01 7.3664458380529663e-01  3.8881385274975233e-01 1.0840196638307741e-06 9.3866797752381725e-01  -4.4909772123392050e-01 1.2957679930633652e+00 7.1726840523914670e-01  6.4952104106147546e-02 4.5754825576357472e-01 9.9125131082716877e-01  1.9384406307235194e-01 1.0867355668116667e+00 7.1952518281646927e-01  3.4011947351461896e-01 2.2604358625249508e+00 -5.7878642595047679e-02  1.0197406253496375e+00 3.7795842472811259e-01 -1.9555222770126996e-05  9.9135956572790185e-01 1.2874282762596860e+00 3.8304097624240424e-01  9.4842123048265481e-01 5.2747407025001425e-01 3.8905920638248709e-01  6.6130367322355188e-01 1.8353778263582492e+00 5.2924643988809361e-01  6.1837397190802013e-01 1.0992464537659334e+00 7.9662329838268520e-01  -1.0353090712943263e+00 2.1336637893574730e+00 3.4131189040589632e-01  -3.8880199681526545e-01 -3.3070261897410931e-07 9.3865765722049654e-01  -3.3393481640572603e-01 2.6483794876685982e+00 -3.4204168519048678e-01  9.0639081343172057e-01 2.9855514952435551e+00 9.8168324332452303e-02  5.9549146963507871e-01 2.5003078710887898e+00 1.2016164254484860e-01  -1.0460609783012571e+00 1.7033339608824785e+00 3.3356562230262682e-01  -1.0933157575138944e-01 2.2400661000599085e+00 -2.4594328383698552e-01  -1.0351255507351735e+00 1.1335110167821438e+00 -2.3678685109083044e-05  -1.0197494877077344e+00 3.7796835791183009e-01 -2.4567224517895568e-05  1.0352522680809866e+00 1.1334727303656840e+00 -1.2697803463303307e-05  1.1311714098916150e+00 1.8852021374351497e+00 -4.8623430921857840e-05  1.2200997765383261e+00 2.6453092211679259e+00 -7.1766387183644375e-05  -1.2192501838340066e+00 2.6454417266181984e+00 3.0754099500836231e-05  -5.8775704503103043e-01 1.7050327340539264e+00 5.6496671750758698e-01  1.0253113648207404e+00 2.2635029068147690e+00 3.2594962629115976e-01  3.6126776677422318e-01 1.4069983806929927e+00 5.8778994173271215e-01  1.5043340885042644e-02 1.6487439339380621e+00 1.9746336669950135e-01  4.1451149069731907e-01 4.2427046421762149e-01 9.2359700568830616e-01  3.0837584291343206e-01 1.9651630117726298e+00 1.1958532647350537e-01  -3.0754534775689896e-01 1.9944170917248427e+00 9.6388537887420217e-02  -9.7150128978268102e-01 6.9537343978369881e-01 3.3539941168517734e-01  -1.0191297679377087e+00 1.3505001183212058e+00 3.0852977235210266e-01  -1.2275519144265863e-01 1.1052777021927840e+00 6.6987116137769098e-01  9.9660542240253469e-01 9.8480605439037061e-01 2.8394956701428631e-01  -7.4257102202084757e-01 1.2010942457963787e+00 7.1839522668159206e-01  8.6184446545026050e-01 2.6476934068090879e-01 5.4776532057774086e-01  1.8561974527685293e-01 2.3767565899597010e+00 -3.0253589831331718e-01  -6.2291740746956148e-01 2.5617963089172298e+00 1.1259319483952206e-01  -3.2147146127359771e-01 1.4810583490550535e+00 4.9844067120435376e-01  9.6065604122073567e-01 1.5936580118039643e+00 4.8065100144835221e-01  -6.5908765581603190e-01 2.3173484729164890e+00 2.9118750891423711e-01  6.7309875515534445e-01 7.9912403868863158e-01 7.8352214669888687e-01  -9.7109491809430681e-01 3.0857369672497859e-01 3.1385588867356701e-01  -6.4555319164825786e-01 5.6948362270718711e-01 7.9769165284127008e-01  -4.0383860168911023e-01 7.2128028258707899e-01 9.2267406557540177e-01  8.4777312106406499e-01 1.1871886064863491e+00 6.2609101663866817e-01  -8.5771226572366277e-01 8.0722660187815176e-01 5.8505427042785030e-01  -7.0315375996252316e-01 2.8949475565120025e-01 7.4103561355154113e-01  -8.5770803924028283e-01 1.8309279401787093e+00 5.2204314470118851e-01  -1.4763703593169689e-01 2.5422146193338624e-01 9.9395871603583141e-01  1.9840429932512699e-01 2.0586783912884307e-01 9.8874371331709854e-01  5.9747840490039195e-01 2.3209208214265972e-01 8.2526368017974661e-01  -4.0191576987039790e-01 1.0239789392052698e+00 8.4844381265668445e-01  7.7046938685912447e-01 2.4027232855339706e+00 3.0803184830837910e-01  7.3865775992521587e-01 2.7366165329637147e+00 1.1374440770732330e-01  4.6619778082919300e-01 2.7386802203199285e+00 -2.2411782803716809e-01  1.6183154525892007e-01 1.4900380880592119e+00 3.6732087896158305e-01  4.7365151795716737e-01 1.9408940029311359e+00 3.4021142570698848e-01  1.0846422308180061e+00 1.6991956098709389e+00 1.9941589104333279e-01  8.4658524912805622e-01 2.0884438526310620e+00 4.4384128472410606e-01  -1.1016609152888830e+00 3.0244484596504204e+00 1.2844753353198587e-01  -1.0539365526119286e+00 2.7411689356466966e+00 2.0375389300141358e-01  1.1060995790700547e+00 2.8151427035797503e+00 1.6764295969189671e-01  9.8317046414097464e-01 2.6307694644411189e-01 2.7040657769050103e-01  1.3921987599318586e-01 8.7376807770976561e-01 8.8889281948076437e-01  -4.5117837885701884e-01 2.5540776361779032e+00 -1.0797377546404563e-01  1.1430378595348134e+00 2.4651295777037112e+00 1.8712617613685992e-01  -1.5275735441246655e-01 6.2167721918446794e-01 9.7663472127737105e-01  -1.1127579816828037e+00 2.3626342909778897e+00 2.3225347896634335e-01  4.9067502538860502e-01 1.6332965929141396e+00 5.4621483055655240e-01  1.1595070798967948e+00 2.0738631378260930e+00 -2.0812955046671491e-05  4.3603643916746304e-01 2.5070506000282835e+00 -9.6906822693899664e-02  -8.4477556811345700e-01 4.2447815108696867e-08 5.6446292538347809e-01  -4.7797895463297496e-01 2.1569050970236612e+00 2.0261963359626950e-01  1.2108464374931853e-01 2.1324369331986195e+00 -1.5606543560366970e-01  -7.4038826428146054e-01 2.9165791343235021e+00 1.0875797084129783e-02  -4.6383725348003435e-01 1.9356938817751328e+00 3.3294328783017652e-01  -1.0095305884183683e+00 9.0056523055067794e-01 2.0252876128861783e-01  -9.2735182048459075e-01 1.2466038350751429e+00 5.1751349955197812e-01  -1.6316422785912421e-01 1.7987458359703437e+00 1.2430011976170947e-01  -8.1436664975739537e-01 2.6992499287808651e+00 1.8730308161310480e-01  -1.5931755296913644e-01 1.5395109694811215e+00 3.2623693188439901e-01  -2.7998992189167615e-01 2.4243226043533785e+00 -2.4426604410842101e-01  4.4584434957761204e-01 2.1713150642762939e+00 1.4897549661402382e-01  -6.5388503442724677e-01 1.4241355703482088e+00 6.9629719058571460e-01  8.1536592183551693e-01 6.7205827941050966e-01 6.3448104853764542e-01  -8.5254199416602749e-01 2.3605730417544887e-01 5.6088105647363307e-01  9.9475014317027255e-01 7.3581289406590189e-01 2.5394939787626569e-01  5.4933738120972087e-01 6.1067009928636995e-01 8.6133465759221040e-01  5.3900310236914550e-01 1.3207706460343926e+00 7.3150255121089225e-01  -5.1449123611162872e-01 2.0394486904620565e-01 8.7719337243792195e-01  -2.5011906554768482e-01 2.1468453529396569e+00 -7.7167144916611433e-02  -1.0209408625680032e+00 5.6689716433947834e-01 -1.5402571896214527e-05  -2.3477239537140801e-01 1.2844642227014034e+00 5.7949271324085561e-01  2.5813653690504990e-01 5.9188007593427072e-01 9.6413290428328280e-01  1.0396324676732416e+00 1.4924209367987586e+00 2.8979233265150556e-01  1.0503949215533728e+00 1.3219194394639788e+00 -1.5234368746362106e-05  -8.3177183360012907e-01 2.2136078105171872e+00 4.0092511617193782e-01  9.0180041730575822e-01 1.3940722450487275e+00 5.6139229584341366e-01  -9.9647479050327725e-01 -6.4022995182055347e-07 1.9820654589909606e-01  3.9055163139460380e-01 1.0151983721813023e+00 8.5087427253511860e-01  1.6467871584341418e-01 1.2629777155782063e+00 5.5370189475932952e-01  -1.0984562843620076e+00 1.9230255454247840e+00 2.4078941919715199e-01  2.0318397536809968e-01 1.7715394587908757e+00 1.7137960015970680e-01  1.0209498696144879e+00 5.6688036033309464e-01 -2.7403372038775911e-05  1.1116269416096229e+00 2.0650966939003137e+00 2.3378857967247252e-01  -8.5049732340273165e-01 1.0317234121304308e+00 6.1475216893594331e-01  -1.0171754721733333e+00 1.1420429540656458e+00 2.2727575034330069e-01  -1.0182100953649591e+00 1.8902761440382010e-01 -3.3310811060902492e-05  9.4508308099781357e-01 1.0944360612153521e+00 4.6040479287490704e-01  4.1015176926388658e-01 2.1161031541263103e-01 9.2765102762785157e-01  -1.1586352085788059e+00 2.0740065405414483e+00 -3.0184459535126258e-05  8.5204929461569556e-01 4.7354386122167530e-01 5.7259751115186941e-01  1.0021635576745744e+00 4.5696774574476617e-01 1.9616980569527451e-01  9.2552245965102864e-01 7.2588119134095852e-01 4.5696261423544299e-01  3.4811809479783057e-01 1.2308100125731343e+00 7.0186259808304141e-01  8.7910817060551005e-01 1.7974555436612474e+00 5.2019599650587101e-01  -1.9173276391710652e-03 9.7294299743646495e-01 7.7351943725976036e-01  1.0230732640036830e+00 1.1764915885557441e+00 2.0709401801341290e-01  -1.0037473388437566e+00 4.7259180752567548e-01 1.8822445939111637e-01  5.9680307516750443e-02 6.8904285259317677e-01 9.7180063618973900e-01  -9.4897785399568724e-01 4.9652653033216232e-01 3.8578874030038934e-01  -5.9474510107478751e-01 1.0853042113508646e+00 8.0825053214934905e-01  -8.9653458224010152e-01 2.0235451764585171e+00 4.5294741413688666e-01  -1.2286383393915299e+00 2.8370976877871770e+00 1.3880553848363833e-04  7.7306059269475158e-01 1.0130180602983065e+00 7.0213566932578242e-01  5.8705574320932463e-01 2.6611887359217477e+00 1.8937154976085169e-03  -4.7358057874946979e-01 1.4716470731723053e+00 6.2947974883436386e-01  6.3598196078104341e-01 2.0090334323391894e+00 4.3636520714916710e-01  6.7911220708627118e-01 1.6536116099160652e+00 6.0920179091003412e-01  -1.8504286992950417e-01 2.5648338452153188e+00 -4.5030288880331804e-01  -6.3967730571097836e-03 2.3655890790954150e+00 -3.7192923729838007e-01  -1.1420319665431011e+00 2.1720160862253324e+00 1.7483643663630258e-01  9.9647603150498376e-01 -6.0116208562005042e-07 1.9820943512526731e-01  7.3994723306750065e-01 2.9159111715811261e+00 8.7503563266637576e-03  1.9820808035999540e-01 1.3175068294351377e-06 9.9649216054456757e-01  -1.9821644513218364e-01 1.9137920845435877e-07 9.9648264345519777e-01  5.6445618377240259e-01 2.2621396546858410e-07 8.4477723352755629e-01  1.8324215568621968e-01 2.5645242545565341e+00 -4.5107960517887147e-01  8.4477858138244966e-01 -2.2690094514266858e-07 5.6446231959428728e-01  1.1010748056786743e+00 3.0244539128996859e+00 1.2733250633020690e-01  -4.6719013910456680e-01 2.7392504489244005e+00 -2.2263346391776184e-01  -5.6446407895285444e-01 -3.0948210326232446e-07 8.4477239795510517e-01  -6.9999791586702192e-02 2.0806249453140242e+00 -1.3335872746394875e-01  9.1388670993689602e-01 2.7926943612931425e+00 1.8196125341478656e-01  4.6807677926139024e-01 2.3733375417588056e+00 4.0397461544448274e-02  6.0304036386400406e-01 2.3400447568128837e+00 2.2880312657423554e-01  7.5149220154489260e-01 2.5721057370277238e+00 2.1497942765976846e-01  3.3514018366070736e-01 1.5498197353494847e+00 4.6056693108681446e-01  -6.7684460833982107e-01 2.7389167609563048e+00 5.5812243853349645e-02  -3.3179231107655477e-01 1.8865676253603220e-01 9.5670476889966405e-01  -1.1482121839715718e+00 2.5595293949643976e+00 1.7470677336041679e-01  -9.3989443582094845e-01 1.6451801267710151e+00 5.0188780585645820e-01  -1.0602280720185222e+00 1.5330927370580183e+00 2.1178314806007179e-01  -1.1011267297535181e+00 1.6974380648679634e+00 -2.8962363917010355e-05  -7.7076742572525547e-01 1.6457828506614622e+00 6.0422633905840883e-01  -5.7032671046382866e-01 3.9104022577974801e-01 8.4588360952597497e-01  1.2295437442347414e+00 2.8369678407798760e+00 -7.5216937858728528e-07  -1.0273629063988940e+00 9.4470066603723779e-01 -1.7274650155216344e-05  1.0181996077628934e+00 1.8902311506361968e-01 -2.9248836001270487e-05  1.1017630692949898e+00 1.6973189262305042e+00 -1.6531522847014288e-05  1.0274216674279648e+00 9.4467184321704634e-01 -4.8210501964133922e-05  -1.0501142247212671e+00 1.3219746508146941e+00 -3.0428716318058025e-05  1.2049892440368906e+00 2.4540158695504770e+00 -3.2134852543612855e-05  -1.2041836806027404e+00 2.4541498799730990e+00 4.3959057416848088e-05  7.4195419600535573e-01 2.8697809882249697e-01 7.0261226582078029e-01  -1.0047292334900995e+00 1.8745585984796729e+00 4.0603195854061880e-01  -7.8765860042585834e-01 6.3516149928003884e-01 6.6633468715204414e-01  -3.0804811018374678e-01 1.1548583221322546e+00 7.3188351422602560e-01  -6.7011328196839037e-01 1.8734623992522523e+00 5.1584863829266114e-01  -4.1548003966337466e-01 1.6576430650447838e+00 4.6573102475385542e-01  -5.2953295033020564e-01 2.3314262544966571e+00 1.5273838357097258e-01  5.3456299888444248e-01 8.9890617680258100e-01 8.6110491294681157e-01  1.8020334787827857e-01 2.0029434037536440e+00 -2.3365127177461503e-02  4.7398592547184548e-01 1.7847894247993692e+00 4.4053344960737012e-01  9.9523966604422232e-01 2.4442928679831666e+00 2.9853186825741562e-01  1.1437138524450916e+00 2.2423266178026604e+00 1.8248535399009336e-01  1.1101614695778634e+00 1.8838588951804029e+00 1.8870962217734344e-01  -2.2270096819975360e-01 1.0086595355123633e+00 8.0256715636381926e-01  7.0787717929338201e-01 1.2499827667928782e+00 7.2928864512877667e-01  5.2047643182516667e-01 1.4827890774382813e+00 6.4686979319454641e-01  -2.0629565215237691e-01 4.3782317982467112e-01 9.7811341630518733e-01  -1.0082297962840159e+00 1.5147476546161671e+00 3.9110122524806579e-01  -9.7872461903668706e-01 2.3057369598744311e+00 3.4294168324461144e-01  -1.0101067572191387e+00 6.4964555867331120e-01 1.6232017353740730e-01  4.1731060572102109e-02 1.7915489134911116e+00 8.7537620053821069e-02  5.7521378462256312e-01 4.3559153767438069e-01 8.4341436947354875e-01  2.3999169635781828e-01 4.1313114314853988e-01 9.7290357930475380e-01  1.1067969928254480e+00 2.6396359160457803e+00 2.0074335136922669e-01  7.7589688523593203e-01 2.2403909380396687e+00 3.8200395441797569e-01  -5.0172958210861662e-01 2.4566201234210245e+00 3.1051027899036149e-02  -5.1287962330032577e-01 1.8197471915470227e+00 4.5516015218835709e-01  1.0073168687799636e+00 2.0702389677549333e+00 3.7597796985508636e-01  -5.0548741938245588e-03 1.1974359910770744e+00 5.6565005563029069e-01  3.2809097562736250e-01 2.1134630139917521e+00 3.2676010740979880e-02  3.4348388845571115e-01 1.8496313549109191e+00 2.4717996307779766e-01  1.8673359261853685e-02 1.8041810802257444e-01 1.0071622946129093e+00  -7.5009935239174297e-01 2.5444918782699544e+00 2.3041071838359162e-01  1.7424848504868840e-01 1.6284956984461880e+00 2.6441986075004487e-01  3.1794043239821546e-01 2.3932939898596470e+00 -1.7799702499415362e-01  -3.1838008276519758e-01 5.7061653975112014e-01 9.5206742297126168e-01  -4.9000655541105748e-01 5.6742483917020503e-01 8.9150562600064287e-01  6.0603475172491539e-02 2.2470552951644565e+00 -2.6791902386587296e-01  -1.7664180133389090e-01 1.9974626881566642e+00 -2.1644002433031523e-02  -9.0208948438855219e-01 6.3551473633649225e-01 4.9725456710403437e-01  -9.6741652047677118e-01 8.6211439859218375e-01 3.6580978962880295e-01  -3.6320418094578355e-01 2.1487561271555284e+00 5.1477499953476967e-02  -3.0608294171194295e-01 1.8583536835871468e+00 1.9755713867511115e-01  -1.0090161385996959e+00 2.8354734668678788e-01 1.4520646078052116e-01  7.8739371929655710e-01 1.3585194884497964e-01 6.4534646882446056e-01  -6.4324982226388294e-01 1.3894910205608751e-01 7.8861682803934363e-01  -1.0975954310456730e+00 1.7600250291056969e+00 1.6942644001745816e-01  1.0430199225338166e+00 1.3513078292412031e+00 1.7942296515771847e-01  -5.0100538475526335e-01 8.7439582815882611e-01 8.7682098844850631e-01  -5.9812496798022641e-01 7.3479563256668701e-01 8.3451277081493824e-01  7.1500868010838728e-03 1.5164570546023430e+00 3.0244872339498635e-01  -9.7394155240569880e-01 1.3944172277424177e-01 2.9532107248262257e-01  -5.6106199648204347e-01 2.6427647682645015e+00 -1.7717583599683197e-02  1.0174395908581206e+00 8.5043128456385542e-01 1.3656947943550579e-01  -1.7406126465366908e-01 1.6723471292903593e+00 2.2959997332878859e-01  6.8555800955282153e-01 6.3534595093990531e-01 7.6788547143561936e-01  -9.1190814376993667e-01 3.5567600112665082e-01 4.6283476588944794e-01  2.1877358824395110e-01 2.2612230252449819e+00 -1.9002140296872896e-01  8.3293124771830263e-01 1.5828319689763442e+00 5.9535996180276807e-01  4.7831107317857130e-01 1.1793695386608729e+00 7.8597689873593679e-01  -3.0453794628742625e-01 2.2999668435758038e+00 -1.3007615458003896e-01  7.7646359631937079e-01 1.9497222151463263e+00 4.9834239022631788e-01  9.9776643107140806e-01 1.7423424680181521e+00 4.2426396155504964e-01  -7.4460787755879532e-01 4.5662188213109667e-01 7.0599286016529761e-01  2.1382113858143584e-01 7.4666837695832167e-01 9.5228428126569453e-01  -5.4677524169295377e-01 2.0792074271080541e+00 3.3177303327589674e-01  -5.9357498645408313e-01 1.2421548408989052e+00 7.6480035129467849e-01  -7.3551200935443839e-01 1.0359315282653783e+00 7.3546684574434495e-01  -7.9189017250335492e-01 1.3479022493588968e+00 6.6557271888326230e-01  9.4707094553433369e-01 9.3771867612572346e-01 4.3099162673228592e-01  -9.8229929883686107e-01 1.1799600965207353e+00 3.8111038395968910e-01  8.9764730006578297e-01 1.2515398390543028e-01 4.7949687894557691e-01  9.1691890552512789e-01 3.8417232183234701e-01 4.5401796658892080e-01  -6.0482421180892687e-01 1.5639276455655962e+00 6.3691032587137297e-01  9.8456087836175921e-01 1.4448937913006572e+00 4.3327218083103203e-01  -8.2726874626270430