<?xml version="1.0"?>
<VTKFile type="UnstructuredGrid"  version="0.1"  >
<UnstructuredGrid>
<Piece  NumberOfPoints="758" NumberOfCells="1386">
<Points>
<DataArray  type="Float64"  NumberOfComponents="3"  format="ascii">-1.570796326794897 3.048 0  -1.570796326794897 0 0  1.570796326794897 0 0  1.570796326794897 3.048 0  0 0 0  0 3.048 0  -1.570796326794897 1.524 0  1.570796326794897 1.524 0  -0.04609926118424437 1.524 0  0.7853981633974483 0 0  0.7623485328053261 2.262242601661362 0  -0.7853981633974483 0 0  -0.7853981633974483 3.048 0  0.392699081698724 0.7745759241961347 0  -1.570796326794897 0.762 0  -0.8084477939895706 2.0955 0  -0.68277245543452 0.8915343570675713 0  0.7853981633974483 3.048 0  0.778743707341909 1.468410948960538 0  2.780093748954961e-16 2.285302774973185 0  -1.570796326794897 2.286 0  1.570796326794897 0.762 0  1.570796326794897 2.286 0  -0.9375370967763674 1.47348297960658 0  0.9831575747762593 0.9003629142671278 0  -0.3926990816987241 0.4064697549061488 0  1.177419588818055 1.905 0  0.3692901340097942 1.880893989147954 0  -0.4920225169641509 2.564371687128368 0  0.3926990816987241 3.048 0  1.178097245096172 0 0  1.155705348811136 2.643920532523289 0  -1.178097245096172 3.048 0  -1.178097245096172 0 0  -0.1391296372266528 0.8873724190154949 0  -1.10527745318919 2.528282743051346 0  -0.9817477042468103 0.4742759268549471 0  -0.3416666987802651 1.923944646262223 0  -1.570796326794897 1.905 0  -1.156555306160469 1.030861936336814 0  0.7648449098493205 0.4764142032227 0  0.3926990816987241 0 0  -0.4820376416180818 1.326151321396512 0  0.06374421723344185 0.4545169930886408 0  0.1972735722393064 1.163324878565267 0  0.3900417218314142 2.566922767651637 0  1.570796326794897 0.381 0  1.188877612935585 1.295195418509834 0  1.179914028402171 0.5308585702661928 0  0.7660075594126428 1.865233039449035 0  0.6330293131838399 1.095171663968746 0  -1.201232463242587 2.144287146570887 0  -0.3926990816987241 0 0  -0.3926990816987241 3.048 0  1.178097245096172 3.048 0  0.7684409382397209 2.649499271873753 0  -1.236954997304436 1.7145 0  -0.1088573452899617 2.666651387486592 0  -1.570796326794897 1.143 0  -1.570796326794897 0.381 0  1.570796326794897 1.143 0  1.570796326794897 1.905 0  1.570796326794897 2.667 0  -1.570796326794897 2.667 0  -0.6730839067294777 1.743003792473746 0  1.199831389396789 2.275437921225198 0  0.3936837537618041 1.495643752599615 0  0.01539369169800942 1.928544709491661 0  0.4156551272669651 0.4219033286010089 0  0.3401546043708642 2.225103550856524 0  -0.3379897306391274 2.262671266279809 0  -1.23624174049596 0.7000907110925838 0  -1.265224057170889 1.360131453617764 0  -0.1224339018241312 1.210043725539656 0  1.289286200625578 0.9918698881707442 0  -0.7751142346211329 1.197848666814478 0  1.003546186550495 0.2660297686099683 0  0.1963495408493621 2.808538634159524 0  -0.8079023568959116 2.703551618159924 0  -0.3480226984353056 1.610059855391589 0  1.075147893506229 1.598068412087719 0  -0.8290627893979112 2.399544545867518 0  0.6965048925255637 0.7972100472372819 0  -1.257765094876752 0.3107645483825858 0  -0.6724835324263325 0.5684215760013651 0  -0.3995059642389676 0.7173610149075536 0  0.9136951972244611 1.187564504803626 0  -0.964259350608907 0.8095514380783081 0  -0.7565990314517038 0.2897049735129544 0  -0.9603859887840651 1.834914433810327 0  -0.1457055965762301 0.2521630699436873 0  0.1963495408493621 0.2041911848053476 0  0.6241974196550791 0.231695999252114 0  -0.4098815011312292 1.029160072548571 0  0.9592800715482012 2.452820690856482 0  0.9648684169153161 2.840751931000357 0  0.5890486225480862 3.048 0  0.164631037784102 1.698913854044779 0  0.5664480837073581 2.070920238540226 0  1.374107957806476 1.7145 0  0.9861079629544779 2.102471438422718 0  -1.374446785945534 3.048 0  -1.288827800789186 2.762781313597598 0  1.353232957571468 2.835634774483438 0  1.302158670506274 0.2650078124691045 0  0.1394669809465775 0.8907702620243092 0  -0.5631487221059602 2.830992231257464 0  1.372837635547072 2.483038902756259 0  -0.1493395228831287 0.618617259260858 0  -1.32327048447753 2.378769394323546 0  0.56080204725298 1.699622905297025 0  1.570796326794897 2.0955 0  0.5403456747786348 2.786446773498672 0  -0.9817477042468103 0 0  -0.5847039960246873 2.326882432521036 0  0.1225428891326576 2.526494255738436 0  -0.9817477042468103 3.048 0  -0.5522901559753841 2.071668786267058 0  -1.370864794258017 0.9075071715671403 0  -1.043891045637083 1.250611220450313 0  -0.1652643923634778 2.09141301924679 0  -1.044446740946883 2.764982067459552 0  -0.1610370079820225 1.763280243096074 0  -0.3136912237752232 2.810498886211121 0  0.5400974078002052 2.370472734822523 0  -0.7009161718414544 1.427243880175582 0  0.902907438200502 0.6735032943420574 0  -0.9879196222361604 0.2371379634274736 0  1.319268546233604 0.7412771512308228 0  0.5578373583610097 0.608241627784878 0  0.5756483102040615 1.332636919938113 0  -0.5281701577409 0.2032348774530744 0  -0.266729509930448 2.489223923247521 0  -1.570796326794897 0.5715 0  -0.2430656531629531 1.405631921096758 0  0.253622337931223 0.5884397663452474 0  1.284044721043478 1.50372037617638 0  1.570796326794897 1.3335 0  -0.9904333867980613 2.235882060371517 0  0.9871146764618406 1.395690276854986 0  -1.374446785945534 0 0  0.3981951765262902 1.020833864419675 0  0.1670583512016766 1.405384478716078 0  -1.330327693484763 1.938638984813805 0  0.2106653067452682 2.040805097078886 0  1.570796326794897 0.5715 0  1.334822181490566 2.081373939821734 0  -0.9303227889097604 1.033236710715967 0  -1.34639228476592 1.150776798768373 0  -1.570796326794897 0.1905 0  1.106697207481837 1.099709897393925 0  0.4137866939027022 0.2104288000383385 0  -1.570796326794897 2.0955 0  0.9761377489246634 0.4754251272674608 0  1.377108465632662 0.4605024587280874 0  1.108114944719677 0.7297638044096917 0  0.3695908229138113 1.285681859811955 0  0.9799112840676307 1.800306505551499 0  -0.001696842075803034 1.042028929293442 0  1.366537356420357 1.185723700290463 0  -1.385029840108318 0.47625 0  0.05842649915411911 0.6874537157920781 0  -1.183268988745763 0.4997334438341218 0  -0.6073502281622543 1.081347079085406 0  -1.026941765261019 2.031536576622642 0  -1.570796326794897 2.8575 0  0.8159726599830506 1.011928543199529 0  0.7652782693277244 2.849245002237192 0  -0.5252326280373281 1.520125074885265 0  0.7648326174724897 2.063743853392348 0  0.757099741434616 1.666331708950521 0  -0.1963495408493621 3.048 0  -0.005410422648647092 2.843333256403111 0  -1.395368347654653 2.19075 0  1.374446785945534 0 0  0.9817477042468103 3.048 0  0.1963495408493621 0 0  -0.1963495408493621 0 0  0.5890486225480862 0 0  0.1963495408493621 3.048 0  0.9817477042468103 0 0  1.374446785945534 3.048 0  -0.5890486225480862 3.048 0  -0.5890486225480862 0 0  -0.06865319188571758 2.471928549109083 0  1.159049337209348 2.838090892449816 0  0.5817075150535711 2.596909954318943 0  0.7656515661107315 2.455866896253367 0  0.9620790410056582 2.647119292933887 0  0.3676829480103987 1.68739481709134 0  -0.8886101495223063 2.878912500124773 0  -0.3317793704126089 0.1873756770788371 0  -1.383208664444332 2.577695923010364 0  -1.043597917648523 1.648216005744782 0  -1.362178343413552 1.546177620526679 0  -1.570796326794897 1.7145 0  -0.8462722504471433 1.648434957877788 0  -0.588076822054871 0.3899352838051667 0  1.570796326794897 2.8575 0  -1.570796326794897 0.9525 0  1.570796326794897 0.1905 0  1.570796326794897 1.7145 0  1.570796326794897 0.9525 0  -1.570796326794897 1.3335 0  1.570796326794897 2.4765 0  -1.570796326794897 2.4765 0  0.8103777117362174 0.287468585434799 0  -1.145334531235929 1.881885620422454 0  -0.8620560674467429 0.6361265362229395 0  -0.321688879263093 1.207848147265888 0  -0.7798551871678058 1.904240998338365 0  -0.4724954359209014 1.769587110195458 0  -0.667402576232105 2.495985359319255 0  0.5365063314111709 0.8945566719544227 0  0.1855702280441107 2.342745654422604 0  0.55510120733165 1.88540118775351 0  1.188295809121239 2.460939894898248 0  1.38587897409014 2.260870763688798 0  1.383978812419919 1.901097375082534 0  -0.2265735189171196 1.049795314962436 0  0.7387890113368257 1.246392780742437 0  0.5763234466275948 1.516457524623135 0  -0.203279258075353 0.4348372558382012 0  -1.179202350299698 1.523245956950107 0  -1.151844216720993 2.318990544544152 0  -1.410806081599612 0.6547540757597369 0  0.04190096621848406 2.108399609871347 0  0.5925649981629265 0.4343292987553075 0  0.2371113691258682 0.4102816185532077 0  1.334103818253725 2.657728219912091 0  0.9405077369493808 2.275181409651143 0  -0.633962040105568 2.669303984283053 0  -0.6045614816381242 1.904349918307267 0  1.159697673803787 2.079238591118184 0  -0.004643801590645341 1.347662554528907 0  0.3691400131247499 2.395423267764724 0  0.3855005143298051 2.055603978165229 0  0.01839821075864462 0.1788084577298442 0  -0.9568120219060965 2.61629404172056 0  0.1783135820912846 1.871116340262054 0  0.3649950158263953 2.745288921627024 0  -0.3142054567155264 0.5671999812317062 0  -0.4933549623779417 0.564740705097546 0  0.06092775470575962 2.685867440722903 0  -0.1801827362748675 2.337517890002858 0  -1.063355415037434 0.6386189748554 0  -1.205242865599393 0.8676070232612285 0  -0.4176020549597784 2.412196127179313 0  -0.3347051678178828 2.093252344225509 0  -1.427772711006951 0.2857500000000001 0  0.8835729338221293 0.1362887052191026 0  -0.6831011505337878 0.1389086130988801 0  -1.403875662049666 1.77648180985222 0  1.394165436236593 1.362588987767805 0  -0.5007942298153729 0.8700626692351643 0  -0.6093220848169366 0.7321530406295067 0  0.007534593095922887 1.760126887057542 0  -1.276272015520854 0.140425968067263 0  -0.7270478511000733 2.847016806985676 0  1.436331331726002 0.85725 0  -0.1770320080670663 1.927167796173981 0  0.7200726153501196 0.6345534912379586 0  -1.099983122078282 0.3577316115390257 0  0.2324759135153202 2.648405702327079 0  0.9054371869972004 1.582409569434113 0  0.5000672234640285 1.188708149930449 0  -0.340793734207542
[...]
<PointData  Vectors="phi"> 
<DataArray  type="Float64"  Name="phi"  NumberOfComponents="3" format="ascii">-1.0335091705608466e+00 3.0441594035853585e+00 -1.9851400372097191e-05  -1.0160053671503608e+00 -4.9782673864508542e-08 -1.0285802269262676e-05  1.0160055963497343e+00 -3.7608170742093463e-08 -1.2146098645118263e-05  1.0335364637976281e+00 3.0441589037901360e+00 -1.0130821528301543e-05  -6.0092827770352822e-06 8.8296860339864140e-09 1.0160043940604369e+00  -1.2284901507917048e-05 3.0275796455064352e+00 7.8821612552872100e-01  -1.0300409203814196e+00 1.5205668405046988e+00 -1.7795897711117226e-05  1.0300554237396053e+00 1.5205650353347160e+00 -2.5814190280476323e-05  -4.6794700259391010e-02 1.5285162725353350e+00 9.9147040354258831e-01  7.1842667803383753e-01 6.0641638721048845e-08 7.1841628143055736e-01  7.2254742228547220e-01 2.2608641944278336e+00 7.3302552268583021e-01  -7.1842488998185783e-01 -9.1532300504331574e-08 7.1841774159137406e-01  -7.6141294414321226e-01 3.0456441880249199e+00 7.2716755108269449e-01  3.8904645326572523e-01 7.7621102876200576e-01 9.3346147861909756e-01  -1.0221274892126992e+00 7.5985505626451333e-01 -1.9354937720605007e-05  -7.5359784499600102e-01 2.0938977397653629e+00 7.0027410255700362e-01  -6.4333439463879072e-01 8.9180950396753211e-01 7.8523704835713781e-01  7.6145812533763679e-01 3.0456639525125540e+00 7.2720135692188170e-01  7.2192940311573106e-01 1.4677717161009898e+00 7.1988393506874127e-01  -3.6686043369950778e-06 2.2910108674603129e+00 9.5923883878899596e-01  -1.0350195421073614e+00 2.2821750452196454e+00 -2.1917107099996383e-05  1.0221343165715331e+00 7.5985389675624238e-01 -3.0914678813576051e-05  1.0350435444775716e+00 2.2821744060643079e+00 -5.3351555351276133e-05  -8.2981223491973177e-01 1.4717337411667502e+00 6.0004330295277408e-01  8.5042142987671698e-01 8.9912760280900073e-01 5.6250639059443042e-01  -3.8866612067152007e-01 4.0737146740926850e-01 9.3637967405720779e-01  9.5709125594292765e-01 1.9016571313492339e+00 3.8985605848445909e-01  3.6946893598554653e-01 1.8841867220021258e+00 9.2487686987060491e-01  -4.9376601458649955e-01 2.5663449091588912e+00 8.7334211826155472e-01  3.9459020254933536e-01 3.0490367890429195e+00 8.5368443716128506e-01  9.3866075866217624e-01 -8.2426481852551470e-08 3.8880650107740622e-01  9.5842791917557058e-01 2.6400904840130894e+00 4.1222635763588311e-01  -9.7085759967558560e-01 3.0440535152259520e+00 3.9237161723733205e-01  -9.3865758925414411e-01 -2.0260471785317538e-07 3.8881419451970956e-01  -1.4081442185237111e-01 8.9009592098944945e-01 9.9746088512824338e-01  -9.3633338968314805e-01 2.5245865647671781e+00 4.5869222389853032e-01  -8.4663136262012784e-01 4.7362317533644926e-01 5.6420449602057676e-01  -3.4279365346551843e-01 1.9275392186161238e+00 9.3198565167221981e-01  -1.0332354718063768e+00 1.9012759615242802e+00 -2.4317303486173330e-05  -9.3751682748483789e-01 1.0287814845749303e+00 4.0874857516083579e-01  7.0443754268574066e-01 4.7636415375915525e-01 7.3204946418752903e-01  3.8881351640041234e-01 1.3316404392357626e-07 9.3866098024467992e-01  -4.7329674431426533e-01 1.3279753192417325e+00 8.9073513038749275e-01  6.4647762982835436e-02 4.5602881087610198e-01 1.0103240436587857e+00  1.9913612203979242e-01 1.1665910724251924e+00 9.8331926513662105e-01  3.9435557454867054e-01 2.5702540117537764e+00 9.0228363700323200e-01  1.0189090452608089e+00 3.7984535322058055e-01 -1.9443056817680972e-05  9.5350967919185126e-01 1.2925863102072985e+00 3.7854990451024950e-01  9.4247333853507254e-01 5.2966455998528961e-01 3.8715044581588320e-01  7.1794884012192295e-01 1.8643017952799104e+00 7.2884160807130405e-01  6.0399440031538820e-01 1.0957733355400414e+00 8.1451457305921293e-01  -9.6905668612728602e-01 2.1406879918629924e+00 3.6776148545945853e-01  -3.8880352932105894e-01 7.0230186198999575e-09 9.3866225623100308e-01  -3.9462103988894826e-01 3.0490716513192622e+00 8.5397627091131445e-01  9.7086193757348860e-01 3.0440543574969889e+00 3.9237284774319880e-01  7.3690735749890823e-01 2.6475870560614512e+00 7.3301777079643016e-01  -9.7602870454146240e-01 1.7112141816772282e+00 3.3307074391519093e-01  -1.1049736402335132e-01 2.6703329714761073e+00 9.1785508875006061e-01  -1.0260908663387436e+00 1.1400911909433211e+00 -2.6837204439017490e-05  -1.0189066890466842e+00 3.7984592525823008e-01 -2.5145814189193639e-05  1.0261003536441755e+00 1.1400894901661935e+00 -9.7757882733470825e-06  1.0332534902682842e+00 1.9012747580308766e+00 -5.1585272722363432e-05  1.0350991064116024e+00 2.6631753591714400e+00 -2.2232097327445806e-05  -1.0350788167771179e+00 2.6631757567793697e+00 -2.2950811507227246e-05  -6.4281327173599778e-01 1.7430814723559924e+00 7.8817912751522801e-01  9.7017693322421128e-01 2.2717517001004413e+00 3.6935719413686535e-01  3.9150742118623905e-01 1.4983394016985265e+00 9.2387715594296538e-01  1.5620671722081253e-02 1.9339080870874159e+00 9.7754390828967297e-01  4.1012728829361794e-01 4.2278651083405283e-01 9.2720812421593524e-01  3.4262847520555734e-01 2.2289275974562086e+00 9.2449760102550804e-01  -3.4074288312856943e-01 2.2665306756040966e+00 9.2400443309221669e-01  -9.6435160017321497e-01 6.9842836705009759e-01 3.3365115999311751e-01  -9.8079555385535189e-01 1.3572248149202908e+00 3.0566003323871987e-01  -1.2403727653786301e-01 1.2136523885476980e+00 9.9361222957959017e-01  9.8381148814351926e-01 9.8951588188192685e-01 2.8226463539566504e-01  -7.1641885978487851e-01 1.1974461456348833e+00 7.2284842395456395e-01  8.5784080706914123e-01 2.6563661280557477e-01 5.4592177394061503e-01  1.9847632923495545e-01 2.8100344775730455e+00 8.8961140580361420e-01  -7.6793276115625830e-01 2.7011698338415751e+00 7.0654800131948181e-01  -3.4802235919235114e-01 1.6132606730471908e+00 9.3699771134132281e-01  9.0772686619740106e-01 1.5954415375109086e+00 4.8302989476938107e-01  -7.7498875402878009e-01 2.3973579379848213e+00 6.8770568738405657e-01  6.5372724267328397e-01 7.9741137293990971e-01 7.7687144035028610e-01  -9.6857121517700784e-01 3.0997061430594230e-01 3.1302912456404602e-01  -6.3375766030865310e-01 5.6868646227499930e-01 7.9306557481082929e-01  -3.9536931927915936e-01 7.1886285272186357e-01 9.3139588027773768e-01  8.1146502779521701e-01 1.1863102028271826e+00 6.1913507001726209e-01  -8.3871690244304764e-01 8.0851247872118126e-01 5.7839967743775123e-01  -6.9780603407377284e-01 2.8969891107543927e-01 7.3830014321301130e-01  -8.4921682480899430e-01 1.8325464206469002e+00 5.8210877651216009e-01  -1.4741334644423021e-01 2.5296766192503939e-01 1.0034384895494688e+00  1.9809007404657442e-01 2.0481400939240166e-01 9.9513370397060030e-01  5.9382741406715212e-01 2.3189191349891297e-01 8.2375421252623404e-01  -4.0559609189918272e-01 1.0311324654948046e+00 9.2418923663802466e-01  8.6058412586438826e-01 2.4496804195639394e+00 5.8641063995638065e-01  8.7290015099571805e-01 2.8372124922413406e+00 5.8538094689509712e-01  5.9125127790224719e-01 3.0486578677822345e+00 8.2851681133112554e-01  1.6662682340580243e-01 1.7034593231894046e+00 9.7533031417494787e-01  5.5544598864817263e-01 2.0719960639998249e+00 8.4503469176220658e-01  1.0124056274756350e+00 1.7109918935560013e+00 1.9861571455203855e-01  8.6897183895856656e-01 2.0996123203058494e+00 5.6175499851508914e-01  -1.0181830669532597e+00 3.0441178515563054e+00 1.9873403108817642e-01  -1.0007315042270903e+00 2.7588967906302058e+00 2.8379625947685755e-01  1.0147741802448562e+00 2.8317623942611223e+00 2.1990365280140003e-01  9.8128443472002003e-01 2.6429507759593451e-01 2.6983211412686897e-01  1.4113171044004283e-01 8.9350361712096538e-01 9.9736199774078582e-01  -5.6476841838303826e-01 2.8319279509997659e+00 8.4297503647865268e-01  1.0176146727918125e+00 2.4791937557710968e+00 2.0010896273256726e-01  -1.5104119845067782e-01 6.2055886951908756e-01 9.9958496867748636e-01  -1.0069765521317604e+00 2.3749505693129636e+00 2.4937333875293330e-01  5.4647666417488794e-01 1.7008633112796849e+00 8.5006507612792059e-01  1.0343606389147948e+00 2.0917039264029400e+00 -2.2890603281012388e-05  5.4263746484220554e-01 2.7877330440769641e+00 8.5221099303590431e-01  -8.4477331854015647e-01 -4.0953102588396707e-08 5.6446134847215468e-01  -5.7562738462153329e-01 2.3275888676458583e+00 8.3571847822514911e-01  1.2457455118714271e-01 2.5315363313389860e+00 9.3692525808243188e-01  -8.8735695248288460e-01 3.0443003090918350e+00 5.7327852152051872e-01  -5.4274665410843359e-01 2.0729186638684922e+00 8.5178789692420509e-01  -1.0030072161799484e+00 9.0517983825026882e-01 2.0184354890661943e-01  -8.8726357309797466e-01 1.2486124995572394e+00 5.1032305577395110e-01  -1.6749344767032123e-01 2.0965580225838552e+00 9.6057579063604837e-01  -9.1259596108173091e-01 2.7612532611815537e+00 5.1527471005498338e-01  -1.6304327548581424e-01 1.7679615541201119e+00 9.7372927424255717e-01  -3.1731100047540872e-01 2.8133654624805788e+00 8.9087235448803381e-01  5.3582706123517365e-01 2.3717697594885530e+00 8.5590423567339324e-01  -6.6172233867077646e-01 1.4272608966679132e+00 7.7172989483236720e-01  8.0027202548150489e-01 6.7285904999484503e-01 6.2840139176174015e-01  -8.4904211550413222e-01 2.3680803370491713e-01 5.5923769084794606e-01  9.8944808149748720e-01 7.3937635740403518e-01 2.5295617123930725e-01  5.3833083360777634e-01 6.0896688101956820e-01 8.5935729987928366e-01  5.5671903237560361e-01 1.3337126770191279e+00 8.4505807299201485e-01  -5.1191708459566776e-01 2.0352962954298640e-01 8.7680917779255174e-01  -2.7063303272557521e-01 2.4937539556908552e+00 9.2812038091676985e-01  -1.0203941462028998e+00 5.6982282731062961e-01 -1.5104555924543692e-05  -2.4480971451156566e-01 1.4092138659905491e+00 9.6903164936417285e-01  2.5477774390818209e-01 5.9010009366902783e-01 9.7914359535333617e-01  9.8815473305243662e-01 1.5005772672419957e+00 2.8741457311932372e-01  1.0281273029872897e+00 1.3302968611365391e+00 -1.4560106116153912e-05  -8.7393409614940143e-01 2.2328415859785866e+00 5.5879753676184574e-01  8.5813378179013255e-01 1.3937650854362498e+00 5.5905413956288441e-01  -9.9647815474451007e-01 -2.2306880002383888e-07 1.9820752174703296e-01  3.9459499838809836e-01 1.0228605584493053e+00 9.2875814712996796e-01  1.6896393235847504e-01 1.4093181227290095e+00 9.8316611186412406e-01  -1.0050985186855568e+00 1.9350075456014131e+00 2.4216113614515164e-01  2.1312708393011728e-01 2.0456136466853709e+00 9.5649646750652639e-01  1.0203986229316040e+00 5.6982206814721814e-01 -2.6505968119652351e-05  1.0074516019801931e+00 2.0776543219738821e+00 2.3778065516155425e-01  -8.2026229329870459e-01 1.0320754071196419e+00 6.0593950252830875e-01  -1.0002993121248320e+00 1.1480360185227856e+00 2.2612643984472464e-01  -1.0173578903458318e+00 1.8991854769235370e-01 -3.3714056467597324e-05  9.1637739026298737e-01 1.0976850413988855e+00 4.5443957975553007e-01  4.0835604034284312e-01 2.1087418874230718e-01 9.2922584489983440e-01  -1.0343446151973508e+00 2.0917054695067754e+00 -3.1316580593259392e-05  8.4343428184616898e-01 4.7478518321127111e-01 5.6891609816550071e-01  1.0002770510529198e+00 4.5920605375821616e-01 1.9569226214433993e-01  9.1342838900240608e-01 7.2835557513306803e-01 4.5330143985736981e-01  3.6796965564316397e-01 1.2882847689692483e+00 9.3555891525945090e-01  8.6005657630499766e-01 1.7978737825891458e+00 5.6578878556035384e-01  -1.7275496088088170e-03 1.0453329660638033e+00 1.0041208490253353e+00  1.0051162941662517e+00 1.1828912575222081e+00 2.0613627548085292e-01  -1.0019295768636307e+00 4.7490596036004490e-01 1.8777498470636395e-01  5.9265416192516747e-02 6.8970118306951955e-01 1.0080972564483439e+00  -9.4356732059150217e-01 4.9859977459957816e-01 3.8401767096499939e-01  -5.8241418292027936e-01 1.0821182040433357e+00 8.2937025067561687e-01  -8.9005564196001019e-01 2.0285707684699492e+00 5.2650821593879960e-01  -1.0346048211401595e+00 2.8536741769443443e+00 -3.2283874780824481e-05  7.4435202058835892e-01 1.0114030605942927e+00 6.9404444972793566e-01  7.4020513388604126e-01 2.8471985645849536e+00 7.3769156038524852e-01  -5.1343237853190937e-01 1.5216883654503890e+00 8.6890949800974837e-01  7.2048823306902654e-01 2.0625893788788812e+00 7.3026665744716768e-01  7.0821698900083085e-01 1.6656883528312605e+00 7.3464376908913376e-01  -1.9766618224591243e-01 3.0396312572650213e+00 8.2153620629616486e-01  -5.4919215439174149e-03 2.8407156193795369e+00 8.7220395151682828e-01  -1.0201575519716310e+00 2.1869573601066921e+00 1.7746930288737267e-01  9.9647791139261732e-01 -3.0299307551080801e-07 1.9821016368025365e-01  8.8737349069599858e-01 3.0442923348837674e+00 5.7329031686968801e-01  1.9820924019557348e-01 3.9351442070668126e-07 9.9648227894272545e-01  -1.9821728632016813e-01 2.1919628006011124e-07 9.9647888448836064e-01  5.6445647448954683e-01 7.2069989948723153e-08 8.4477622563722210e-01  1.9759710220954851e-01 3.0395958710718420e+00 8.2146403970168180e-01  8.4477483378455775e-01 -1.1743395402277098e-08 5.6446025515705134e-01  1.0182111723977318e+00 3.0441137651618480e+00 1.9874384117914712e-01  -5.9128548121662028e-01 3.0486736318149363e+00 8.2864522951786324e-01  -5.6446132547582273e-01 4.9168070014892053e-08 8.4477068041462799e-01  -6.9840765871502244e-02 2.4772853203301848e+00 9.4417836904787145e-01  9.6198460969486954e-01 2.8341937211735306e+00 4.0976731225562629e-01  5.7810761335337546e-01 2.5975439403142970e+00 8.3746584835928028e-01  7.2955317865682001e-01 2.4542164032339713e+00 7.3249860645767562e-01  8.6664637783542109e-01 2.6437542115861969e+00 5.8579587676572731e-01  3.6721773703415556e-01 1.6905200748616953e+00 9.2930802545629931e-01  -8.2818381331536217e-01 2.8757389323881037e+00 6.4835975261667955e-01  -3.3077717870454304e-01 1.8784865978207707e-01 9.5957209724870329e-01  -1.0196311609010531e+00 2.5738468013345388e+00 1.8976613533206310e-01  -8.9253120294241606e-01 1.6456621550243526e+00 5.1093854556743878e-01  -1.0081877751901129e+00 1.5428552459820570e+00 2.1048661210637434e-01  -1.0317803182992467e+00 1.7108934930737354e+00 -3.5127278481551192e-05  -7.7272479394798899e-01 1.6470819206494283e+00 6.7130450643730122e-01  -5.6379446246957887e-01 3.9034596219883166e-01 8.4392094994573275e-01  1.0346093902389779e+00 2.8536754110046747e+00 -2.0740618201232953e-05  -1.0240620155650555e+00 9.4994404807724797e-01 -1.7812550597031115e-05  1.0173574291329377e+00 1.8991785820273327e-01 -2.9413480990378895e-05  1.0317927399835851e+00 1.7108920527770457e+00 -2.1235666974737832e-05  1.0240734909111098e+00 9.4994244436791753e-01 -5.0295478382111829e-05  -1.0281166052355484e+00 1.3302987388535772e+00 -3.2569088759577710e-05  1.0352878950164139e+00 2.4726684325080202e+00 -1.6424180075676620e-05  -1.0352557512743696e+00 2.4726697238639637e+00 -1.9633186800979704e-05  7.3664380583577671e-01 2.8736530300559204e-01 6.9987931334432540e-01  -9.4381820504373604e-01 1.8786556111558315e+00 4.1975375904146545e-01  -7.7344881227173501e-01 6.3566661539021518e-01 6.6033940912829503e-01  -3.2172499699157320e-01 1.2106199788947956e+00 9.5222029392482899e-01  -7.2903935511255158e-01 1.9031344762475924e+00 7.1948717427019038e-01  -4.6690528269735010e-01 1.7717508035015161e+00 8.8967409349988991e-01  -6.5122068931490207e-01 2.4954540775857104e+00 7.9344711430118586e-01  5.2049850743344206e-01 8.9565437275308768e-01 8.6859998785037607e-01  1.8834499540167429e-01 2.3479047219630851e+00 9.4617581787375249e-01  5.4319108344643219e-01 1.8866705095246672e+00 8.5157401123780196e-01  9.6822745169802771e-01 2.4571659618064263e+00 3.8076067429223870e-01  1.0189559037154658e+00 2.2570623532160821e+00 1.8697361348718383e-01  1.0160411229516284e+00 1.8974395928641754e+00 1.8881544418282006e-01  -2.2824549960946858e-01 1.0526859144173399e+00 9.7945918433707158e-01  6.8953187355473078e-01 1.2462147335501308e+00 7.4754830500291491e-01  5.5859878518472705e-01 1.5175509788801325e+00 8.4341741990742980e-01  -2.0493923866775843e-01 4.3615596989854821e-01 9.9191998000534765e-01  -9.5262000450647655e-01 1.5203436747504635e+00 3.8775861258261241e-01  -9.5269398741230449e-01 2.3153539352718591e+00 4.1476373976280057e-01  -1.0079488402895898e+00 6.5293953780924308e-01 1.6193706227694646e-01  4.2532727706605641e-02 2.1139867332649280e+00 9.6852154822110315e-01  5.6769004389567801e-01 4.3477081680294477e-01 8.4119846695548051e-01  2.3848251473081999e-01 4.1148071942414705e-01 9.8470341422054608e-01  1.0106335850344550e+00 2.6538627656185025e+00 2.3884007728643741e-01  8.4561706640825951e-01 2.2723552995359473e+00 6.0055262957382838e-01  -6.2651823986606281e-01 2.6691305816362441e+00 8.1274504108525447e-01  -5.8697993344741550e-01 1.9050546076423489e+00 8.2649320137927740e-01  9.5253646144822457e-01 2.0757752109588470e+00 4.0678137598382863e-01  -4.7228640032479317e-03 1.3517770951365742e+00 9.9730054281074776e-01  3.7235342277853384e-01 2.3989852805935432e+00 9.1273333042348359e-01  3.8605612987074950e-01 2.0588405619488230e+00 9.1618397868118440e-01  1.8672682808040544e-02 1.7940493999712362e-01 1.0145856630342789e+00  -8.6285885208178448e-01 2.6129845852641131e+00 5.8991053331967225e-01  1.8046564427430845e-01 1.8758931009637745e+00 9.6760503968998435e-01  3.6957110351182476e-01 2.7486044397035272e+00 8.9498670715951345e-01  -3.1388554820564751e-01 5.6865858882675901e-01 9.6241873990375815e-01  -4.8140331514741880e-01 5.6564584572014509e-01 8.9205568716758876e-01  6.1769383377801475e-02 2.6890367411508742e+00 9.1413404096809148e-01  -1.8290275503125325e-01 2.3427073448246882e+00 9.4707797607869149e-01  -8.9126352263128450e-01 6.3749576807769126e-01 4.9348360608210662e-01  -9.5494293119471008e-01 8.6568157144054025e-01 3.6313684321780887e-01  -4.2007271551835179e-01 2.4151604511960101e+00 8.9945869022298675e-01  -3.3666655858293842e-01 2.0970499383095138e+00 9.2950711978075384e-01  -1.0077092449333127e+00 2.8490744273091373e-01 1.4494169635186788e-01  7.8562840975352810e-01 1.3618273334617528e-01 6.4449402025140257e-01  -6.4133450911056555e-01 1.3897443393946396e-01 7.8777614512086347e-01  -1.0183912940291622e+00 1.7728957190683989e+00 1.6888949476308537e-01  1.0124643021358952e+00 1.3594526619002532e+00 1.7856449192945367e-01  -4.8869887364886616e-01 8.7132693270494921e-01 8.8635554400167904e-01  -5.8255796177488661e-01 7.3275723334874654e-01 8.3026045355436251e-01  7.6555438947126103e-03 1.7651865981327963e+00 9.8442792804383406e-01  -9.7300286033408623e-01 1.4006162258330593e-01 2.9501495009213241e-01  -7.0984236034596837e-01 2.8454449651097855e+00 7.6199433268641881e-01  1.0137535784447975e+00 8.5495105781571346e-01 1.3627714267980406e-01  -1.7923309542960464e-01 1.9320341815523898e+00 9.6575493767822040e-01  6.7132419475752103e-01 6.3464628883162866e-01 7.6207925133962717e-01  -9.0718428584048227e-01 3.5703304523823348e-01 4.6094755087687111e-01  2.3597055840542233e-01 2.6525608002914995e+00 9.1737203025006964e-01  8.1120502143924578e-01 1.5807225399831279e+00 6.2581764825725494e-01  4.8909628575710329e-01 1.1902878302937334e+00 8.8388199588110428e-01  -3.4542901375177332e-01 2.6462180946093161e+00 9.0732106647114807e-01  8.1151441144035963e-01 1.9631341576859183e+00 6.3423459442247487e-01  9.3690270701876277e-01 1.7460717305237654e+00 4.3039276640675983e-01  -7.3521032108926043e-01 4.5696904368412411e-01 7.0154368642966225e-01  2.1188033383325483e-01 7.4694288948346499e-01 9.8732456134576552e-01  -6.4763697044994040e-01 2.1860058659657864e+00 7.8969828307999346e-01  -5.9397399660254602e-01 1.2429748692940026e+00 8.2128584899896295e-01  -7.0815215819728672e-01 1.0333373921658990e+00 7.2974308002681210e-01  -7.6421428166221450e-01 1.3444768448249524e+00 6.7605189664253573e-01  9.2838238166641229e-01 9.4098525960995894e-01 4.2664548666715807e-01  -9.5289462863971974e-01 1.1846568814965224e+00 3.7687676288056055e-01  8.9647081150070296e-01 1.2563323510884475e-01 4.7899411780845691e-01  9.1184946904313080e-01 3.8565522032300731e-01 4.5204523082244502e-01  -6.3946051705869078e-01 1.5839293446829941e+00 7.8964264128681205e-01  9.3332648026131559e-01 1.4491128002929836e+00 4.2889404849317270e-01  -8.8752196642244530e-01 2.3938383026483