<?xml version="1.0"?>
<VTKFile type="UnstructuredGrid"  version="0.1"  >
<UnstructuredGrid>
<Piece  NumberOfPoints="758" NumberOfCells="1386">
<Points>
<DataArray  type="Float64"  NumberOfComponents="3"  format="ascii">-1.570796326794897 3.048 0  -1.570796326794897 0 0  1.570796326794897 0 0  1.570796326794897 3.048 0  0 0 0  0 3.048 0  -1.570796326794897 1.524 0  1.570796326794897 1.524 0  -0.04609926118424437 1.524 0  0.7853981633974483 0 0  0.7623485328053261 2.262242601661362 0  -0.7853981633974483 0 0  -0.7853981633974483 3.048 0  0.392699081698724 0.7745759241961347 0  -1.570796326794897 0.762 0  -0.8084477939895706 2.0955 0  -0.68277245543452 0.8915343570675713 0  0.7853981633974483 3.048 0  0.778743707341909 1.468410948960538 0  2.780093748954961e-16 2.285302774973185 0  -1.570796326794897 2.286 0  1.570796326794897 0.762 0  1.570796326794897 2.286 0  -0.9375370967763674 1.47348297960658 0  0.9831575747762593 0.9003629142671278 0  -0.3926990816987241 0.4064697549061488 0  1.177419588818055 1.905 0  0.3692901340097942 1.880893989147954 0  -0.4920225169641509 2.564371687128368 0  0.3926990816987241 3.048 0  1.178097245096172 0 0  1.155705348811136 2.643920532523289 0  -1.178097245096172 3.048 0  -1.178097245096172 0 0  -0.1391296372266528 0.8873724190154949 0  -1.10527745318919 2.528282743051346 0  -0.9817477042468103 0.4742759268549471 0  -0.3416666987802651 1.923944646262223 0  -1.570796326794897 1.905 0  -1.156555306160469 1.030861936336814 0  0.7648449098493205 0.4764142032227 0  0.3926990816987241 0 0  -0.4820376416180818 1.326151321396512 0  0.06374421723344185 0.4545169930886408 0  0.1972735722393064 1.163324878565267 0  0.3900417218314142 2.566922767651637 0  1.570796326794897 0.381 0  1.188877612935585 1.295195418509834 0  1.179914028402171 0.5308585702661928 0  0.7660075594126428 1.865233039449035 0  0.6330293131838399 1.095171663968746 0  -1.201232463242587 2.144287146570887 0  -0.3926990816987241 0 0  -0.3926990816987241 3.048 0  1.178097245096172 3.048 0  0.7684409382397209 2.649499271873753 0  -1.236954997304436 1.7145 0  -0.1088573452899617 2.666651387486592 0  -1.570796326794897 1.143 0  -1.570796326794897 0.381 0  1.570796326794897 1.143 0  1.570796326794897 1.905 0  1.570796326794897 2.667 0  -1.570796326794897 2.667 0  -0.6730839067294777 1.743003792473746 0  1.199831389396789 2.275437921225198 0  0.3936837537618041 1.495643752599615 0  0.01539369169800942 1.928544709491661 0  0.4156551272669651 0.4219033286010089 0  0.3401546043708642 2.225103550856524 0  -0.3379897306391274 2.262671266279809 0  -1.23624174049596 0.7000907110925838 0  -1.265224057170889 1.360131453617764 0  -0.1224339018241312 1.210043725539656 0  1.289286200625578 0.9918698881707442 0  -0.7751142346211329 1.197848666814478 0  1.003546186550495 0.2660297686099683 0  0.1963495408493621 2.808538634159524 0  -0.8079023568959116 2.703551618159924 0  -0.3480226984353056 1.610059855391589 0  1.075147893506229 1.598068412087719 0  -0.8290627893979112 2.399544545867518 0  0.6965048925255637 0.7972100472372819 0  -1.257765094876752 0.3107645483825858 0  -0.6724835324263325 0.5684215760013651 0  -0.3995059642389676 0.7173610149075536 0  0.9136951972244611 1.187564504803626 0  -0.964259350608907 0.8095514380783081 0  -0.7565990314517038 0.2897049735129544 0  -0.9603859887840651 1.834914433810327 0  -0.1457055965762301 0.2521630699436873 0  0.1963495408493621 0.2041911848053476 0  0.6241974196550791 0.231695999252114 0  -0.4098815011312292 1.029160072548571 0  0.9592800715482012 2.452820690856482 0  0.9648684169153161 2.840751931000357 0  0.5890486225480862 3.048 0  0.164631037784102 1.698913854044779 0  0.5664480837073581 2.070920238540226 0  1.374107957806476 1.7145 0  0.9861079629544779 2.102471438422718 0  -1.374446785945534 3.048 0  -1.288827800789186 2.762781313597598 0  1.353232957571468 2.835634774483438 0  1.302158670506274 0.2650078124691045 0  0.1394669809465775 0.8907702620243092 0  -0.5631487221059602 2.830992231257464 0  1.372837635547072 2.483038902756259 0  -0.1493395228831287 0.618617259260858 0  -1.32327048447753 2.378769394323546 0  0.56080204725298 1.699622905297025 0  1.570796326794897 2.0955 0  0.5403456747786348 2.786446773498672 0  -0.9817477042468103 0 0  -0.5847039960246873 2.326882432521036 0  0.1225428891326576 2.526494255738436 0  -0.9817477042468103 3.048 0  -0.5522901559753841 2.071668786267058 0  -1.370864794258017 0.9075071715671403 0  -1.043891045637083 1.250611220450313 0  -0.1652643923634778 2.09141301924679 0  -1.044446740946883 2.764982067459552 0  -0.1610370079820225 1.763280243096074 0  -0.3136912237752232 2.810498886211121 0  0.5400974078002052 2.370472734822523 0  -0.7009161718414544 1.427243880175582 0  0.902907438200502 0.6735032943420574 0  -0.9879196222361604 0.2371379634274736 0  1.319268546233604 0.7412771512308228 0  0.5578373583610097 0.608241627784878 0  0.5756483102040615 1.332636919938113 0  -0.5281701577409 0.2032348774530744 0  -0.266729509930448 2.489223923247521 0  -1.570796326794897 0.5715 0  -0.2430656531629531 1.405631921096758 0  0.253622337931223 0.5884397663452474 0  1.284044721043478 1.50372037617638 0  1.570796326794897 1.3335 0  -0.9904333867980613 2.235882060371517 0  0.9871146764618406 1.395690276854986 0  -1.374446785945534 0 0  0.3981951765262902 1.020833864419675 0  0.1670583512016766 1.405384478716078 0  -1.330327693484763 1.938638984813805 0  0.2106653067452682 2.040805097078886 0  1.570796326794897 0.5715 0  1.334822181490566 2.081373939821734 0  -0.9303227889097604 1.033236710715967 0  -1.34639228476592 1.150776798768373 0  -1.570796326794897 0.1905 0  1.106697207481837 1.099709897393925 0  0.4137866939027022 0.2104288000383385 0  -1.570796326794897 2.0955 0  0.9761377489246634 0.4754251272674608 0  1.377108465632662 0.4605024587280874 0  1.108114944719677 0.7297638044096917 0  0.3695908229138113 1.285681859811955 0  0.9799112840676307 1.800306505551499 0  -0.001696842075803034 1.042028929293442 0  1.366537356420357 1.185723700290463 0  -1.385029840108318 0.47625 0  0.05842649915411911 0.6874537157920781 0  -1.183268988745763 0.4997334438341218 0  -0.6073502281622543 1.081347079085406 0  -1.026941765261019 2.031536576622642 0  -1.570796326794897 2.8575 0  0.8159726599830506 1.011928543199529 0  0.7652782693277244 2.849245002237192 0  -0.5252326280373281 1.520125074885265 0  0.7648326174724897 2.063743853392348 0  0.757099741434616 1.666331708950521 0  -0.1963495408493621 3.048 0  -0.005410422648647092 2.843333256403111 0  -1.395368347654653 2.19075 0  1.374446785945534 0 0  0.9817477042468103 3.048 0  0.1963495408493621 0 0  -0.1963495408493621 0 0  0.5890486225480862 0 0  0.1963495408493621 3.048 0  0.9817477042468103 0 0  1.374446785945534 3.048 0  -0.5890486225480862 3.048 0  -0.5890486225480862 0 0  -0.06865319188571758 2.471928549109083 0  1.159049337209348 2.838090892449816 0  0.5817075150535711 2.596909954318943 0  0.7656515661107315 2.455866896253367 0  0.9620790410056582 2.647119292933887 0  0.3676829480103987 1.68739481709134 0  -0.8886101495223063 2.878912500124773 0  -0.3317793704126089 0.1873756770788371 0  -1.383208664444332 2.577695923010364 0  -1.043597917648523 1.648216005744782 0  -1.362178343413552 1.546177620526679 0  -1.570796326794897 1.7145 0  -0.8462722504471433 1.648434957877788 0  -0.588076822054871 0.3899352838051667 0  1.570796326794897 2.8575 0  -1.570796326794897 0.9525 0  1.570796326794897 0.1905 0  1.570796326794897 1.7145 0  1.570796326794897 0.9525 0  -1.570796326794897 1.3335 0  1.570796326794897 2.4765 0  -1.570796326794897 2.4765 0  0.8103777117362174 0.287468585434799 0  -1.145334531235929 1.881885620422454 0  -0.8620560674467429 0.6361265362229395 0  -0.321688879263093 1.207848147265888 0  -0.7798551871678058 1.904240998338365 0  -0.4724954359209014 1.769587110195458 0  -0.667402576232105 2.495985359319255 0  0.5365063314111709 0.8945566719544227 0  0.1855702280441107 2.342745654422604 0  0.55510120733165 1.88540118775351 0  1.188295809121239 2.460939894898248 0  1.38587897409014 2.260870763688798 0  1.383978812419919 1.901097375082534 0  -0.2265735189171196 1.049795314962436 0  0.7387890113368257 1.246392780742437 0  0.5763234466275948 1.516457524623135 0  -0.203279258075353 0.4348372558382012 0  -1.179202350299698 1.523245956950107 0  -1.151844216720993 2.318990544544152 0  -1.410806081599612 0.6547540757597369 0  0.04190096621848406 2.108399609871347 0  0.5925649981629265 0.4343292987553075 0  0.2371113691258682 0.4102816185532077 0  1.334103818253725 2.657728219912091 0  0.9405077369493808 2.275181409651143 0  -0.633962040105568 2.669303984283053 0  -0.6045614816381242 1.904349918307267 0  1.159697673803787 2.079238591118184 0  -0.004643801590645341 1.347662554528907 0  0.3691400131247499 2.395423267764724 0  0.3855005143298051 2.055603978165229 0  0.01839821075864462 0.1788084577298442 0  -0.9568120219060965 2.61629404172056 0  0.1783135820912846 1.871116340262054 0  0.3649950158263953 2.745288921627024 0  -0.3142054567155264 0.5671999812317062 0  -0.4933549623779417 0.564740705097546 0  0.06092775470575962 2.685867440722903 0  -0.1801827362748675 2.337517890002858 0  -1.063355415037434 0.6386189748554 0  -1.205242865599393 0.8676070232612285 0  -0.4176020549597784 2.412196127179313 0  -0.3347051678178828 2.093252344225509 0  -1.427772711006951 0.2857500000000001 0  0.8835729338221293 0.1362887052191026 0  -0.6831011505337878 0.1389086130988801 0  -1.403875662049666 1.77648180985222 0  1.394165436236593 1.362588987767805 0  -0.5007942298153729 0.8700626692351643 0  -0.6093220848169366 0.7321530406295067 0  0.007534593095922887 1.760126887057542 0  -1.276272015520854 0.140425968067263 0  -0.7270478511000733 2.847016806985676 0  1.436331331726002 0.85725 0  -0.1770320080670663 1.927167796173981 0  0.7200726153501196 0.6345534912379586 0  -1.099983122078282 0.3577316115390257 0  0.2324759135153202 2.648405702327079 0  0.9054371869972004 1.582409569434113 0  0.5000672234640285 1.188708149930449 0  -0.340793734207542
[...]
<PointData  Vectors="phi"> 
<DataArray  type="Float64"  Name="phi"  NumberOfComponents="3" format="ascii">-1.0291735702423173e+00 3.0451526938735656e+00 -1.8977792577526431e-05  -1.0160044236741397e+00 -4.3181041053857959e-08 -1.0447784226722022e-05  1.0160046599206038e+00 -3.2928899119551343e-08 -1.2308409136423306e-05  1.0291898199074987e+00 3.0451525067419376e+00 -9.4625142452280470e-06  -5.9962917701741365e-06 8.0263462504723802e-09 1.0160035848342259e+00  1.5174034101116474e-07 3.0390789589427061e+00 8.4979288126775132e-01  -1.0270063424577631e+00 1.5214031859914994e+00 -1.7803060791997960e-05  1.0270155819892595e+00 1.5214020439724734e+00 -2.5844917070683152e-05  -4.6799074933349866e-02 1.5275238593215883e+00 9.9764884284855071e-01  7.1842661415743292e-01 4.9718183978657067e-08 7.1841618352500658e-01  7.1786401798628474e-01 2.2611041360592870e+00 7.3359575391771770e-01  -7.1842499393310300e-01 -6.4481330071791177e-08 7.1841764194146229e-01  -7.5202780396306479e-01 3.0460657687666579e+00 7.2652826200757470e-01  3.8892220915598458e-01 7.7583306493094717e-01 9.3470352975755888e-01  -1.0208960700306449e+00 7.6035279749281037e-01 -1.9359570505398906e-05  -7.4926697941993781e-01 2.0942181633539469e+00 7.0060324914544003e-01  -6.4259939349881745e-01 8.9175780214580136e-01 7.8574124776206045e-01  7.5205735255193684e-01 3.0460769772833509e+00 7.2654512002343485e-01  7.1974524971590581e-01 1.4679131690688716e+00 7.2040032928207354e-01  -3.7633298530094187e-07 2.2900548854051239e+00 9.7328862735256572e-01  -1.0304063523951315e+00 2.2831527597424528e+00 -2.1701267050483741e-05  1.0209009454693045e+00 7.6035205818229012e-01 -3.0910473545408521e-05  1.0304231480890205e+00 2.2831524634764877e+00 -5.3593322074758417e-05  -8.2715177345359958e-01 1.4721387045110368e+00 6.0014416678843407e-01  8.4917569146413163e-01 8.9942572105998164e-01 5.6255182561328998e-01  -3.8866614915851488e-01 4.0716242471882941e-01 9.3692276382113748e-01  9.5283558723040662e-01 1.9024638098195221e+00 3.8975647700578808e-01  3.6874398364123001e-01 1.8834482991418824e+00 9.3041672762450134e-01  -4.9116434010553855e-01 2.5657133153952376e+00 8.7987982367050210e-01  3.9657599405118649e-01 3.0500651109645083e+00 8.8839571162295838e-01  9.3866117436664287e-01 -6.1434890648315873e-08 3.8880658422637698e-01  9.5147315698930734e-01 2.6410702019046957e+00 4.1168981654769315e-01  -9.6247005583148870e-01 3.0450893913519717e+00 3.9143677384465997e-01  -9.3865792945742854e-01 -1.6105831267849103e-07 3.8881425959830740e-01  -1.4083009831759910e-01 8.8945823192727813e-01 9.9982503110429133e-01  -9.2962763735312015e-01 2.5255117957809166e+00 4.5816580991671918e-01  -8.4613677179807489e-01 4.7378530643948430e-01 5.6419856241629796e-01  -3.4217116794148833e-01 1.9267449245890655e+00 9.3822519702137130e-01  -1.0292930372414635e+00 1.9022084439575095e+00 -2.4336095759991332e-05  -9.3581050372353580e-01 1.0292736484102483e+00 4.0872764485337570e-01  7.0411686343623958e-01 4.7638927598835379e-01 7.3217820809791068e-01  3.8881350836718992e-01 9.8566395376278890e-08 9.3866070751282304e-01  -4.7258162895630584e-01 1.3275565467490973e+00 8.9286775903423887e-01  6.4664050476603605e-02 4.5566480944465854e-01 1.0113361476307674e+00  1.9911662948278991e-01 1.1658417392934823e+00 9.8672460926325223e-01  3.9300420254381463e-01 2.5694558451547249e+00 9.1284043644391488e-01  1.0183158100196563e+00 3.8010910563075667e-01 -1.9416771180323354e-05  9.5109265346123384e-01 1.2932052381240340e+00 3.7852140357214370e-01  9.4176944068198520e-01 5.2994615348996799e-01 3.8711028020542498e-01  7.1465480563692618e-01 1.8644812417165140e+00 7.2947365517027918e-01  6.0308117022987306e-01 1.0956411407946238e+00 8.1537940516074425e-01  -9.6406958139046051e-01 2.1415733558496775e+00 3.6761300566750560e-01  -3.8880364057292216e-01 5.9107328322698253e-09 9.3866265459550435e-01  -3.9659898335558275e-01 3.0500825719277160e+00 8.8857993452207928e-01  9.6247424606684939e-01 3.0450900037783919e+00 3.9144019049349515e-01  7.3012652862609351e-01 2.6479164273241795e+00 7.3299977866177768e-01  -9.7240026165335425e-01 1.7120072461713116e+00 3.3301784028992348e-01  -1.1060843121259881e-01 2.6707407382892461e+00 9.4393300962298954e-01  -1.0240037343460859e+00 1.1407813248294740e+00 -2.6839580291862158e-05  -1.0183141545392835e+00 3.8010946266753237e-01 -2.5162322551507788e-05  1.0240094600338288e+00 1.1407802369671636e+00 -9.7857144019046992e-06  1.0293048143925283e+00 1.9022078026882210e+00 -5.1665517214088257e-05  1.0303227643350392e+00 2.6641604685046656e+00 -2.2399830728130952e-05  -1.0303093714088776e+00 2.6641605304110638e+00 -2.2864406283799931e-05  -6.4040355798589677e-01 1.7430364113231991e+00 7.8941960652800969e-01  9.6475737769295877e-01 2.2726678313844975e+00 3.6916113143557072e-01  3.9096993361445775e-01 1.4977254932383568e+00 9.2732822573072238e-01  1.5623408144963357e-02 1.9328266763362170e+00 9.8738537495144174e-01  4.1011352784001043e-01 4.2258287901409058e-01 9.2774228925491320e-01  3.4176537506455007e-01 2.2280935654951723e+00 9.3274810299722954e-01  -3.3984755972161867e-01 2.2656922622650209e+00 9.3256768566348958e-01  -9.6332513443753931e-01 6.9881825752075510e-01 3.3361657655755056e-01  -9.7817955293541525e-01 1.3579180671762054e+00 3.0562895126917067e-01  -1.2404434459703297e-01 1.2128285124229192e+00 9.9755036716577694e-01  9.8212927415648144e-01 9.9007049635508437e-01 2.8223544254878546e-01  -7.1490233788181756e-01 1.1975450913714800e+00 7.2328215578465238e-01  8.5758716319539319e-01 2.6573444164517845e-01 5.4589075840801338e-01  1.9902853387605995e-01 2.8115872285932522e+00 9.2306440834761938e-01  -7.6038832356686681e-01 2.7016457578071051e+00 7.0599560782627435e-01  -3.4757268736523983e-01 1.6125404465592481e+00 9.4143207018553510e-01  9.0447616627386995e-01 1.5960592880665545e+00 4.8299225768493548e-01  -7.6920886473793892e-01 2.3978036917405934e+00 6.8764109799171780e-01  6.5309941399884353e-01 7.9737791837552818e-01 7.7727429375645563e-01  -9.6814447131199521e-01 3.1015537629533851e-01 3.1298127034154261e-01  -6.3343360709729535e-01 5.6863816041598514e-01 7.9335062081756846e-01  -3.9525960030677110e-01 7.1851594736581936e-01 9.3248739096325628e-01  8.0964862039820373e-01 1.1866082312252604e+00 6.1927626481432030e-01  -8.3768005383879074e-01 8.0876595034445120e-01 5.7844767312811174e-01  -6.9766282273044622e-01 2.8971013782283567e-01 7.3836454444264721e-01  -8.4531156948999442e-01 1.8330864831380662e+00 5.8208680006255564e-01  -1.4744230680478274e-01 2.5277296394024423e-01 1.0039246619627302e+00  1.9812092233143594e-01 2.0466371188246699e-01 9.9549019131836325e-01  5.9378335090303769e-01 2.3185309321285077e-01 8.2387215628592303e-01  -4.0531899357536305e-01 1.0306792729900627e+00 9.2599513103075082e-01  8.5403322760989386e-01 2.4504160379939242e+00 5.8586173328553393e-01  8.6366419700394736e-01 2.8380984724799214e+00 5.8389789152561189e-01  5.8863617303868110e-01 3.0481376538319722e+00 8.3930254710485985e-01  1.6658396890769941e-01 1.7024785482711056e+00 9.8226702435761282e-01  5.5302930535005401e-01 2.0716869809790306e+00 8.4794447162473130e-01  1.0088402576599182e+00 1.7118515088159290e+00 1.9859318409892970e-01  8.6400541410278364e-01 2.1002716314255525e+00 5.6156458087961059e-01  -1.0126730655205081e+00 3.0451257547267510e+00 1.9858296244483242e-01  -9.9453281328540677e-01 2.7599028112081818e+00 2.8353915614890018e-01  1.0090648013318475e+00 2.8327652813893729e+00 2.1975564550134835e-01  9.8090969973546960e-01 2.6445983599864925e-01 2.6979054507169414e-01  1.4114865547420954e-01 8.9286369213591743e-01 9.9974105077176822e-01  -5.6152952664487399e-01 2.8313878414362268e+00 8.5061257463780460e-01  1.0123757485909675e+00 2.4801791030636329e+00 2.0004880328882682e-01  -1.5106679255463229e-01 6.2009700862314854e-01 1.0009867218719339e+00  -1.0017203563842696e+00 2.3759214187108149e+00 2.4928350997921345e-01  5.4485077261822046e-01 1.7005594535124406e+00 8.5232040619133975e-01  1.0300281139342122e+00 2.0926658606302473e+00 -2.2911646306846242e-05  5.3972885370618906e-01 2.7871350372816681e+00 8.6024053289577507e-01  -8.4477320759385366e-01 -3.1876569856877978e-08 5.6446127413997504e-01  -5.7237304811243050e-01 2.3273049628051838e+00 8.3873327040032541e-01  1.2450999009528235e-01 2.5310045577031182e+00 9.5550878879056333e-01  -8.7650299037358204e-01 3.0452543705131343e+00 5.7118311448959691e-01  -5.4044287568502081e-01 2.0725723146112349e+00 8.5491428667276825e-01  -1.0014945897862397e+00 9.0572530059622836e-01 2.0181796188411377e-01  -8.8508340368284966e-01 1.2490844471464619e+00 5.1033743796002051e-01  -1.6737881471518865e-01 2.0955427710399994e+00 9.7102619087082365e-01  -9.0425296767961105e-01 2.7622043155830966e+00 5.1418818171523095e-01  -1.6299355136471147e-01 1.7669629939214750e+00 9.8121097251710221e-01  -3.1787761490762356e-01 2.8135033722921197e+00 9.1646009862531752e-01  5.3294724517889935e-01 2.3713450691349882e+00 8.5997315004514030e-01  -6.5994315269620907e-01 1.4272520824180714e+00 7.7257417615184321e-01  7.9954740667807656e-01 6.7302240455256956e-01 6.2847236232742698e-01  -8.4882921280674573e-01 2.3689083947174230e-01 5.5921040887213702e-01  9.8830375418569649e-01 7.3982004436111681e-01 2.5292431946687705e-01  5.3810423318737155e-01 6.0880783525106397e-01 8.5987923885858375e-01  5.5563849016907685e-01 1.3334641305012145e+00 8.4654368790568690e-01  -5.1191361312158035e-01 2.0346516054829833e-01 8.7696356681542176e-01  -2.7009202377984043e-01 2.4929378456399283e+00 9.4161403956271239e-01  -1.0195137905248539e+00 5.7020855635484535e-01 -1.5114811135956765e-05  -2.4470245817187627e-01 1.4084069242436044e+00 9.7340729704785056e-01  2.5479459368703034e-01 5.8970766234694194e-01 9.8029032582958597e-01  9.8513681030265710e-01 1.5013325377066971e+00 2.8738195046117343e-01  1.0255658327363806e+00 1.3310668213864560e+00 -1.4577619996027396e-05  -8.6841132564340628e-01 2.2335492010371043e+00 5.5849751431636885e-01  8.5561495924539310e-01 1.3942155792248119e+00 5.5910374279067021e-01  -9.9647855846832201e-01 -1.7303594461758186e-07 1.9820761514054774e-01  3.9434739738656432e-01 1.0223942851289223e+00 9.3060373646397876e-01  1.6894440643641376e-01 1.4084360064707055e+00 9.8804693021170009e-01  -1.0009132229359075e+00 1.9359061187975022e+00 2.4212029228864457e-01  2.1293917961120873e-01 2.0446309659294521e+00 9.6581069250535079e-01  1.0195170605659163e+00 5.7020811313867092e-01 -2.6520389961992307e-05  1.0029005329171494e+00 2.0785838898413789e+00 2.3773254728335380e-01  -8.1879137656450718e-01 1.0323553182527774e+00 6.0604339222096648e-01  -9.9821458690850196e-01 1.1486856001140557e+00 2.2610125971359932e-01  -1.0170744745775360e+00 1.9005041904753103e-01 -3.3744352316261981e-05  9.1453495697285270e-01 1.0981646735770150e+00 4.5443095825148150e-01  4.0837888313985088e-01 2.1077145713555898e-01 9.2946490099547552e-01  -1.0300185141470730e+00 2.0926668509519444e+00 -3.1327215502364543e-05  8.4294185306987035e-01 4.7494451900510121e-01 5.6891250496575330e-01  9.9959705532688659e-01 4.5950498679766683e-01 1.9565803720153355e-01  9.1242018324257668e-01 7.2869082961814813e-01 4.5328282942653669e-01  3.6764312618163680e-01 1.2876897367405649e+00 9.3843054135318960e-01  8.5623693265884593e-01 1.7984326197981650e+00 5.6575830472430011e-01  -1.7269590387018938e-03 1.0445674950443244e+00 1.0073590617394013e+00  1.0029368741005757e+00 1.1835640287476614e+00 2.0611308630956676e-01  -1.0012246884335501e+00 4.7521573970981079e-01 1.8774228800855516e-01  5.9278997706051724e-02 6.8916706490018020e-01 1.0098171277460730e+00  -9.4290961169439458e-01 4.9886694130088899e-01 3.8397522333060380e-01  -5.8159257172703926e-01 1.0819468559315901e+00 8.3032258296105554e-01  -8.8533180843441828e-01 2.0292634334680488e+00 5.2633658600246058e-01  -1.0299614998858029e+00 2.8546603419591912e+00 -3.1851142006784069e-05  7.4313207303352802e-01 1.0115359599024714e+00 6.9431432078927202e-01  7.3226369403434755e-01 2.8475347291025939e+00 7.3754428960096496e-01  -5.1229049003670979e-01 1.5213230396523536e+00 8.7113825503410935e-01  7.1653663527202371e-01 2.0628003117668956e+00 7.3089155110947690e-01  7.0557405203867007e-01 1.6658173599124984e+00 7.3530390569728488e-01  -1.9797659720979272e-01 3.0465311075373114e+00 8.7637579844580038e-01  -5.4858433759008632e-03 2.8447499010402457e+00 9.1451749126897486e-01  -1.0154838068274961e+00 2.1879167577350374e+00 1.7744139534215705e-01  9.9647820419822586e-01 -2.3873506882083288e-07 1.9821021529945418e-01  8.7651891330089526e-01 3.0452483019089227e+00 5.7119608603681393e-01  1.9820921397247315e-01 2.9515519763393772e-07 9.9648162721579736e-01  -1.9821730810904992e-01 1.6660150269322817e-07 9.9647861145501893e-01  5.6445650830002447e-01 5.7182012185478986e-08 8.4477616537847722e-01  1.9792615876282052e-01 3.0465175193507479e+00 8.7641553573415931e-01  8.4477448736968885e-01 -6.5798748037750106e-09 5.6446009912172157e-01  1.0126914212236549e+00 3.0451228921529343e+00 1.9859242340058031e-01  -5.8865542695136797e-01 3.0481480084300774e+00 8.3937567487613163e-01  -5.6446139824647912e-01 3.6961815360555953e-08 8.4477103450951285e-01  -6.9792487852645871e-02 2.4766384207956871e+00 9.6176201472314693e-01  9.5422072932868485e-01 2.8352079507686927e+00 4.0901318560076255e-01  5.7417521008776640e-01 2.5971734014340524e+00 8.4132754161861212e-01  7.2394415333818696e-01 2.4545004874919076e+00 7.3284463379764342e-01  8.5886750935118028e-01 2.6445687001349429e+00 5.8483454002882795e-01  3.6664430289532091e-01 1.6898157449696314e+00 9.3388368694203228e-01  -8.1872260431124266e-01 2.8764891289870089e+00 6.4682827987316072e-01  -3.3080751340488751e-01 1.8773709425441854e-01 9.5982456708304653e-01  -1.0143410771754757e+00 2.5748366441602188e+00 1.8970417034545956e-01  -8.8914875284246953e-01 1.6462592518057684e+00 5.1090256005638679e-01  -1.0050701946156819e+00 1.5436599696011870e+00 2.1046340852668108e-01  -1.0282766695794723e+00 1.7117844276147181e+00 -3.5091174792721814e-05  -7.6977030675475855e-01 1.6473813306045013e+00 6.7158877869643274e-01  -5.6368985389915649e-01 3.9025943006322866e-01 8.4418548014407846e-01  1.0299631498223270e+00 2.8546614898534113e+00 -2.0824519730171531e-05  -1.0224216862239019e+00 9.5054341397894238e-01 -1.7806700634733067e-05  1.0170742591151083e+00 1.9004990073733355e-01 -2.9406004652119008e-05  1.0282835684329776e+00 1.7117835745133556e+00 -2.1241836269699724e-05  1.0224303104245576e+00 9.5054236690451910e-01 -5.0291166609708130e-05  -1.0255596398047497e+00 1.3310680399240202e+00 -3.2554923043364148e-05  1.0305102333516987e+00 2.4736531123268524e+00 -1.6522266861843166e-05  -1.0304875425151063e+00 2.4736538847036775e+00 -1.9421045991448428e-05  7.3647164467432769e-01 2.8739903735390865e-01 6.9991431871480181e-01  -9.3962582698823804e-01 1.8794291142902921e+00 4.1964870747809807e-01  -7.7282660190737706e-01 6.3578777985039137e-01 6.6043424985744603e-01  -3.2153767148615975e-01 1.2099851651063469e+00 9.5512479054682242e-01  -7.2553987695070332e-01 1.9033524801928918e+00 7.2002940237152302e-01  -4.6570184719545216e-01 1.7712436075359494e+00 8.9317010094669702e-01  -6.4642855472030369e-01 2.4954197983806208e+00 7.9506539303298729e-01  5.2006461727900333e-01 8.9540763599121553e-01 8.6956948026510184e-01  1.8809792047555776e-01 2.3469898242357226e+00 9.5916975093208157e-01  5.4124966931591156e-01 1.8863444551792499e+00 8.5426874274655895e-01  9.6215338542624107e-01 2.4581176515725764e+00 3.8045413342146528e-01  1.0141191428192118e+00 2.2580289756754812e+00 1.8693887126757980e-01  1.0120033918855882e+00 1.8983477076717266e+00 1.8879215588472922e-01  -2.2821631652699267e-01 1.0520176113435051e+00 9.8222241951389977e-01  6.8801855568649151e-01 1.2462594445787896e+00 7.4812530136309818e-01  5.5721437407772256e-01 1.5172910554471004e+00 8.4519858701482531e-01  -2.0497412537372753e-01 4.3584090048570917e-01 9.9277078860289569e-01  -9.4955576469283387e-01 1.5210346472547758e+00 3.8771627227671773e-01  -9.4699790988390808e-01 2.3162526671498140e+00 4.1448936838650507e-01  -1.0069431614130828e+00 6.5335977787726829e-01 1.6191224728004741e-01  4.2526151696392310e-02 2.1129313707535227e+00 9.8026153018000906e-01  5.6755418541378466e-01 4.3467781596363392e-01 8.4149430050809559e-01  2.3851882579602715e-01 4.1119498320072073e-01 9.8546255439086916e-01  1.0049560071402459e+00 2.6548593834965954e+00 2.3870627332288022e-01  8.3999326640415872e-01 2.2729977823685137e+00 6.0026952323353899e-01  -6.2158102552899375e-01 2.6689339246641683e+00 8.1540919223482677e-01  -5.8462964888333835e-01 1.9048505598772285e+00 8.2858092770372049e-01  9.4768806717892484e-01 2.0766164428418721e+00 4.0662414071118536e-01  -4.7225181608606982e-03 1.3508523427670009e+00 1.0022873953828348e+00  3.7112484439318139e-01 2.3981764428822845e+00 9.2159138352779391e-01  3.8507697683953979e-01 2.0581069194561965e+00 9.2237998085912132e-01  1.8675879557030213e-02 1.7925919817501690e-01 1.0149277240651458e+00  -8.5530306571562720e-01 2.6137789729069585e+00 5.8902725431760072e-01  1.8038318159370786e-01 1.8748910787897719e+00 9.7583498171341743e-01  3.6932372557095339e-01 2.7480458634148821e+00 9.1300911817323183e-01  -3.1388302036163851e-01 5.6831618088473013e-01 9.6339424606769819e-01  -4.8127271084627321e-01 5.6544194443812568e-01 8.9265319661157427e-01  6.1864624054768329e-02 2.6898447144669273e+00 9.4254814875743542e-01  -1.8266368131355068e-01 2.3417887273531299e+00 9.6008883081372975e-01  -8.9045588155269417e-01 6.3776586605357743e-01 4.9347005564784019e-01  -9.5358681794122757e-01 8.6613539537587081e-01 3.6310788760861962e-01  -4.1839608168949433e-01 2.4144257238807927e+00 9.0699693114683622e-01  -3.3595045423352771e-01 2.0962212850781938e+00 9.3695509711106262e-01  -1.0072722566895074e+00 2.8510006016895334e-01 1.4491523823675165e-01  7.8555259899756413e-01 1.3621206420343840e-01 6.4449066156353663e-01  -6.4130595040966565e-01 1.3896396588349033e-01 7.8781781664572048e-01  -1.0146877926354747e+00 1.7737798840313848e+00 1.6887164110123568e-01  1.0098287298393613e+00 1.3602055303298948e+00 1.7854522522176985e-01  -4.8835394098068280e-01 8.7104044156023008e-01 8.8741158675750753e-01  -5.8215111654548057e-01 7.3262853393418648e-01 8.3080176795157745e-01  7.6582525288768103e-03 1.7641214885654943e+00 9.9262696366786241e-01  -9.7283827238126430e-01 1.4014583421608501e-01 2.9499229298402424e-01  -7.0262427748434875e-01 2.8456144641524932e+00 7.6270533994066347e-01  1.0123340549071149e+00 8.5548800302785721e-01 1.3625798030786487e-01  -1.7913832599775545e-01 1.9310259319339875e+00 9.7448794259615656e-01  6.7087056767646713e-01 6.3463898661873919e-01 7.6233661482460902e-01  -9.0676761051390931e-01 3.5720070735306408e-01 4.6090326398497777e-01  2.3595478029333714e-01 2.6522274849044924e+00 9.3788943496978450e-01  8.0828119052547676e-01 1.5811068387037259e+00 6.2596297372584975e-01  4.8846699415951794e-01 1.1899264744393059e+00 8.8557591983336681e-01  -3.4478560583051593e-01 2.6454981779161306e+00 9.2225447214582301e-01  8.0729419992718132e-01 1.9636029643961992e+00 6.3428141722592868e-01  9.3313883447058565e-01 1.7467953873060018e+00 4.3031734022198420e-01  -7.3487363849825882e-01 4.5702171944899400e-01 7.0162958058758973e-01  2.1189294138633077e-01 7.4642974234127835e-01 9.8901146456283628e-01  -6.4397954556019976e-01 2.1859823851455809e+00 7.9123278166589417e-01  -5.9286844592944432e-01 1.2428137550861498e+00 8.2237918171127533e-01  -7.0699786106526541e-01 1.0334047112903011e+00 7.3012830207181723e-01  -7.6215911181550799e-01 1.3447021200233125e+00 6.7634917209952583e-01  9.2689783179347773e-01 9.4142812315800317e-01 4.2662775767703809e-01  -9.5077035155915401e-01 1.1852355475917387e+00 3.7685021946392472e-01  8.9636368575376835e-01 1.2568898477233864e-01 4.7897520457301906e-01  9.1138988639980967e-01 3.8583970912785420e-01 4.5200134829229860e-01  -6.3745346182162699e-01 1.5838703835617496e+00 7.9077588495227147e-01  9.3048811191469072e-01 1.4497425323853141e+00 4.2886220692856347e-01  -8.8124806977685199e-01 2.39462763216229