<?xml version="1.0"?>
<VTKFile type="UnstructuredGrid"  version="0.1"  >
<UnstructuredGrid>
<Piece  NumberOfPoints="758" NumberOfCells="1386">
<Points>
<DataArray  type="Float64"  NumberOfComponents="3"  format="ascii">-1.570796326794897 3.048 0  -1.570796326794897 0 0  1.570796326794897 0 0  1.570796326794897 3.048 0  0 0 0  0 3.048 0  -1.570796326794897 1.524 0  1.570796326794897 1.524 0  -0.04609926118424437 1.524 0  0.7853981633974483 0 0  0.7623485328053261 2.262242601661362 0  -0.7853981633974483 0 0  -0.7853981633974483 3.048 0  0.392699081698724 0.7745759241961347 0  -1.570796326794897 0.762 0  -0.8084477939895706 2.0955 0  -0.68277245543452 0.8915343570675713 0  0.7853981633974483 3.048 0  0.778743707341909 1.468410948960538 0  2.780093748954961e-16 2.285302774973185 0  -1.570796326794897 2.286 0  1.570796326794897 0.762 0  1.570796326794897 2.286 0  -0.9375370967763674 1.47348297960658 0  0.9831575747762593 0.9003629142671278 0  -0.3926990816987241 0.4064697549061488 0  1.177419588818055 1.905 0  0.3692901340097942 1.880893989147954 0  -0.4920225169641509 2.564371687128368 0  0.3926990816987241 3.048 0  1.178097245096172 0 0  1.155705348811136 2.643920532523289 0  -1.178097245096172 3.048 0  -1.178097245096172 0 0  -0.1391296372266528 0.8873724190154949 0  -1.10527745318919 2.528282743051346 0  -0.9817477042468103 0.4742759268549471 0  -0.3416666987802651 1.923944646262223 0  -1.570796326794897 1.905 0  -1.156555306160469 1.030861936336814 0  0.7648449098493205 0.4764142032227 0  0.3926990816987241 0 0  -0.4820376416180818 1.326151321396512 0  0.06374421723344185 0.4545169930886408 0  0.1972735722393064 1.163324878565267 0  0.3900417218314142 2.566922767651637 0  1.570796326794897 0.381 0  1.188877612935585 1.295195418509834 0  1.179914028402171 0.5308585702661928 0  0.7660075594126428 1.865233039449035 0  0.6330293131838399 1.095171663968746 0  -1.201232463242587 2.144287146570887 0  -0.3926990816987241 0 0  -0.3926990816987241 3.048 0  1.178097245096172 3.048 0  0.7684409382397209 2.649499271873753 0  -1.236954997304436 1.7145 0  -0.1088573452899617 2.666651387486592 0  -1.570796326794897 1.143 0  -1.570796326794897 0.381 0  1.570796326794897 1.143 0  1.570796326794897 1.905 0  1.570796326794897 2.667 0  -1.570796326794897 2.667 0  -0.6730839067294777 1.743003792473746 0  1.199831389396789 2.275437921225198 0  0.3936837537618041 1.495643752599615 0  0.01539369169800942 1.928544709491661 0  0.4156551272669651 0.4219033286010089 0  0.3401546043708642 2.225103550856524 0  -0.3379897306391274 2.262671266279809 0  -1.23624174049596 0.7000907110925838 0  -1.265224057170889 1.360131453617764 0  -0.1224339018241312 1.210043725539656 0  1.289286200625578 0.9918698881707442 0  -0.7751142346211329 1.197848666814478 0  1.003546186550495 0.2660297686099683 0  0.1963495408493621 2.808538634159524 0  -0.8079023568959116 2.703551618159924 0  -0.3480226984353056 1.610059855391589 0  1.075147893506229 1.598068412087719 0  -0.8290627893979112 2.399544545867518 0  0.6965048925255637 0.7972100472372819 0  -1.257765094876752 0.3107645483825858 0  -0.6724835324263325 0.5684215760013651 0  -0.3995059642389676 0.7173610149075536 0  0.9136951972244611 1.187564504803626 0  -0.964259350608907 0.8095514380783081 0  -0.7565990314517038 0.2897049735129544 0  -0.9603859887840651 1.834914433810327 0  -0.1457055965762301 0.2521630699436873 0  0.1963495408493621 0.2041911848053476 0  0.6241974196550791 0.231695999252114 0  -0.4098815011312292 1.029160072548571 0  0.9592800715482012 2.452820690856482 0  0.9648684169153161 2.840751931000357 0  0.5890486225480862 3.048 0  0.164631037784102 1.698913854044779 0  0.5664480837073581 2.070920238540226 0  1.374107957806476 1.7145 0  0.9861079629544779 2.102471438422718 0  -1.374446785945534 3.048 0  -1.288827800789186 2.762781313597598 0  1.353232957571468 2.835634774483438 0  1.302158670506274 0.2650078124691045 0  0.1394669809465775 0.8907702620243092 0  -0.5631487221059602 2.830992231257464 0  1.372837635547072 2.483038902756259 0  -0.1493395228831287 0.618617259260858 0  -1.32327048447753 2.378769394323546 0  0.56080204725298 1.699622905297025 0  1.570796326794897 2.0955 0  0.5403456747786348 2.786446773498672 0  -0.9817477042468103 0 0  -0.5847039960246873 2.326882432521036 0  0.1225428891326576 2.526494255738436 0  -0.9817477042468103 3.048 0  -0.5522901559753841 2.071668786267058 0  -1.370864794258017 0.9075071715671403 0  -1.043891045637083 1.250611220450313 0  -0.1652643923634778 2.09141301924679 0  -1.044446740946883 2.764982067459552 0  -0.1610370079820225 1.763280243096074 0  -0.3136912237752232 2.810498886211121 0  0.5400974078002052 2.370472734822523 0  -0.7009161718414544 1.427243880175582 0  0.902907438200502 0.6735032943420574 0  -0.9879196222361604 0.2371379634274736 0  1.319268546233604 0.7412771512308228 0  0.5578373583610097 0.608241627784878 0  0.5756483102040615 1.332636919938113 0  -0.5281701577409 0.2032348774530744 0  -0.266729509930448 2.489223923247521 0  -1.570796326794897 0.5715 0  -0.2430656531629531 1.405631921096758 0  0.253622337931223 0.5884397663452474 0  1.284044721043478 1.50372037617638 0  1.570796326794897 1.3335 0  -0.9904333867980613 2.235882060371517 0  0.9871146764618406 1.395690276854986 0  -1.374446785945534 0 0  0.3981951765262902 1.020833864419675 0  0.1670583512016766 1.405384478716078 0  -1.330327693484763 1.938638984813805 0  0.2106653067452682 2.040805097078886 0  1.570796326794897 0.5715 0  1.334822181490566 2.081373939821734 0  -0.9303227889097604 1.033236710715967 0  -1.34639228476592 1.150776798768373 0  -1.570796326794897 0.1905 0  1.106697207481837 1.099709897393925 0  0.4137866939027022 0.2104288000383385 0  -1.570796326794897 2.0955 0  0.9761377489246634 0.4754251272674608 0  1.377108465632662 0.4605024587280874 0  1.108114944719677 0.7297638044096917 0  0.3695908229138113 1.285681859811955 0  0.9799112840676307 1.800306505551499 0  -0.001696842075803034 1.042028929293442 0  1.366537356420357 1.185723700290463 0  -1.385029840108318 0.47625 0  0.05842649915411911 0.6874537157920781 0  -1.183268988745763 0.4997334438341218 0  -0.6073502281622543 1.081347079085406 0  -1.026941765261019 2.031536576622642 0  -1.570796326794897 2.8575 0  0.8159726599830506 1.011928543199529 0  0.7652782693277244 2.849245002237192 0  -0.5252326280373281 1.520125074885265 0  0.7648326174724897 2.063743853392348 0  0.757099741434616 1.666331708950521 0  -0.1963495408493621 3.048 0  -0.005410422648647092 2.843333256403111 0  -1.395368347654653 2.19075 0  1.374446785945534 0 0  0.9817477042468103 3.048 0  0.1963495408493621 0 0  -0.1963495408493621 0 0  0.5890486225480862 0 0  0.1963495408493621 3.048 0  0.9817477042468103 0 0  1.374446785945534 3.048 0  -0.5890486225480862 3.048 0  -0.5890486225480862 0 0  -0.06865319188571758 2.471928549109083 0  1.159049337209348 2.838090892449816 0  0.5817075150535711 2.596909954318943 0  0.7656515661107315 2.455866896253367 0  0.9620790410056582 2.647119292933887 0  0.3676829480103987 1.68739481709134 0  -0.8886101495223063 2.878912500124773 0  -0.3317793704126089 0.1873756770788371 0  -1.383208664444332 2.577695923010364 0  -1.043597917648523 1.648216005744782 0  -1.362178343413552 1.546177620526679 0  -1.570796326794897 1.7145 0  -0.8462722504471433 1.648434957877788 0  -0.588076822054871 0.3899352838051667 0  1.570796326794897 2.8575 0  -1.570796326794897 0.9525 0  1.570796326794897 0.1905 0  1.570796326794897 1.7145 0  1.570796326794897 0.9525 0  -1.570796326794897 1.3335 0  1.570796326794897 2.4765 0  -1.570796326794897 2.4765 0  0.8103777117362174 0.287468585434799 0  -1.145334531235929 1.881885620422454 0  -0.8620560674467429 0.6361265362229395 0  -0.321688879263093 1.207848147265888 0  -0.7798551871678058 1.904240998338365 0  -0.4724954359209014 1.769587110195458 0  -0.667402576232105 2.495985359319255 0  0.5365063314111709 0.8945566719544227 0  0.1855702280441107 2.342745654422604 0  0.55510120733165 1.88540118775351 0  1.188295809121239 2.460939894898248 0  1.38587897409014 2.260870763688798 0  1.383978812419919 1.901097375082534 0  -0.2265735189171196 1.049795314962436 0  0.7387890113368257 1.246392780742437 0  0.5763234466275948 1.516457524623135 0  -0.203279258075353 0.4348372558382012 0  -1.179202350299698 1.523245956950107 0  -1.151844216720993 2.318990544544152 0  -1.410806081599612 0.6547540757597369 0  0.04190096621848406 2.108399609871347 0  0.5925649981629265 0.4343292987553075 0  0.2371113691258682 0.4102816185532077 0  1.334103818253725 2.657728219912091 0  0.9405077369493808 2.275181409651143 0  -0.633962040105568 2.669303984283053 0  -0.6045614816381242 1.904349918307267 0  1.159697673803787 2.079238591118184 0  -0.004643801590645341 1.347662554528907 0  0.3691400131247499 2.395423267764724 0  0.3855005143298051 2.055603978165229 0  0.01839821075864462 0.1788084577298442 0  -0.9568120219060965 2.61629404172056 0  0.1783135820912846 1.871116340262054 0  0.3649950158263953 2.745288921627024 0  -0.3142054567155264 0.5671999812317062 0  -0.4933549623779417 0.564740705097546 0  0.06092775470575962 2.685867440722903 0  -0.1801827362748675 2.337517890002858 0  -1.063355415037434 0.6386189748554 0  -1.205242865599393 0.8676070232612285 0  -0.4176020549597784 2.412196127179313 0  -0.3347051678178828 2.093252344225509 0  -1.427772711006951 0.2857500000000001 0  0.8835729338221293 0.1362887052191026 0  -0.6831011505337878 0.1389086130988801 0  -1.403875662049666 1.77648180985222 0  1.394165436236593 1.362588987767805 0  -0.5007942298153729 0.8700626692351643 0  -0.6093220848169366 0.7321530406295067 0  0.007534593095922887 1.760126887057542 0  -1.276272015520854 0.140425968067263 0  -0.7270478511000733 2.847016806985676 0  1.436331331726002 0.85725 0  -0.1770320080670663 1.927167796173981 0  0.7200726153501196 0.6345534912379586 0  -1.099983122078282 0.3577316115390257 0  0.2324759135153202 2.648405702327079 0  0.9054371869972004 1.582409569434113 0  0.5000672234640285 1.188708149930449 0  -0.340793734207542
[...]
<PointData  Vectors="phi"> 
<DataArray  type="Float64"  Name="phi"  NumberOfComponents="3" format="ascii">-1.2730730140737907e+00 3.0157851795922639e+00 2.2085956007752446e-04  -1.0160125583081505e+00 2.7592392807674505e-08 -9.1386980770624636e-06  1.0160125921496530e+00 2.8545545689040702e-09 -1.0950746568854892e-05  1.2731415425965644e+00 3.0157640656980549e+00 1.7316116192599081e-04  -5.8097275878752068e-06 2.2258164215485774e-07 1.0160220485199059e+00  -6.1470016568947877e-04 2.5932613876867023e+00 -3.2496986144297463e-01  -1.0597315799046654e+00 1.5091429199093274e+00 -1.7029894903705816e-05  1.0598961899719845e+00 1.5091074160816678e+00 -2.4952204246493780e-05  -4.6823074592142612e-02 1.4219264340568878e+00 6.5366385936664129e-01  7.1842702403426473e-01 -1.8992109009133440e-07 7.1841670529775370e-01  6.6300455450083251e-01 2.2209389423844712e+00 4.7258352544225535e-01  -7.1842431694853393e-01 -2.9091942881019321e-07 7.1841884661152755e-01  -6.2697050767611584e-01 2.8917556368158874e+00 6.5398644871002415e-02  3.9471574591566472e-01 7.7949034850191279e-01 9.1752395973617984e-01  -1.0240366530700493e+00 7.5495139098953978e-01 -2.1558266309300993e-05  -7.2838553092575764e-01 2.0802375861609961e+00 5.5096937478609853e-01  -6.6108032974719466e-01 8.9323292803381360e-01 7.8762053704405710e-01  6.2657025629094665e-01 2.8912609543979260e+00 6.4009043712304009e-02  7.5344499699516398e-01 1.4714735754174610e+00 7.1081351951854266e-01  -4.4477149498791524e-04 2.0102014107218040e+00 1.6866664779246388e-01  -1.1740655530220272e+00 2.2585270264005683e+00 -1.3235949411486910e-06  1.0240538098303624e+00 7.5494081723262307e-01 -3.0574961433491267e-05  1.1744429830325671e+00 2.2584573595857207e+00 -5.5112485770112547e-05  -8.7392890652404576e-01 1.4711968883198798e+00 6.0432501282208573e-01  8.7126342428147396e-01 8.9651663075541099e-01 5.6883226607265924e-01  -3.9129118595876372e-01 4.0926811923708811e-01 9.2999346451959608e-01  1.0337432064201622e+00 1.8927498916021210e+00 3.8959804254715208e-01  3.4403355801547836e-01 1.7757361166215804e+00 5.2370905550803359e-01  -4.2596686783348547e-01 2.3733276619661678e+00 1.8136762745396981e-01  3.4281441466502738e-01 2.7201684056497126e+00 -1.6148088960258838e-01  9.3865699472530939e-01 -4.5100675965050347e-07 3.8880524379699449e-01  1.0045133613069595e+00 2.6258734556524055e+00 3.2529790482978782e-01  -9.7800651554572016e-01 3.0106192164173931e+00 2.0473439001692378e-01  -9.3865687722164637e-01 -2.6136850478887989e-07 3.8881445442204882e-01  -1.4216946678545811e-01 8.9326298623457301e-01 9.5941027092006614e-01  -9.6945930084025567e-01 2.5130062786484815e+00 3.7019670167794472e-01  -8.5565780995846474e-01 4.7176812245732541e-01 5.6806942986699172e-01  -3.2056172770166508e-01 1.8003196858943178e+00 4.8591844480378155e-01  -1.1103814322864960e+00 1.8840103054378143e+00 -2.4093918872556295e-05  -9.5741514756661927e-01 1.0238641152037657e+00 4.1266393463555873e-01  7.1427238322039177e-01 4.7585533214579712e-01 7.3649796019501634e-01  3.8881366605877155e-01 9.2316517271689489e-07 9.3866789149149787e-01  -4.7877911059088679e-01 1.3296573983559430e+00 8.3650368605425707e-01  6.4593663640180141e-02 4.5897486963130757e-01 9.8805702957674435e-01  1.9890767103335413e-01 1.1621759788165293e+00 9.0110542201207910e-01  3.4952440354194653e-01 2.3322343215098953e+00 1.2305964734416505e-01  1.0202351413880046e+00 3.7752340636768655e-01 -1.9578069923548154e-05  9.8381360303172627e-01 1.2860943775062366e+00 3.8231338496052697e-01  9.4908243401823877e-01 5.2681983118560083e-01 3.8925776254365646e-01  7.1319786365827487e-01 1.8606157938721233e+00 6.3314129293215093e-01  6.2437981679011911e-01 1.0989984315120283e+00 8.1166768378506526e-01  -1.0597199971192215e+00 2.1303710138007315e+00 3.5987581870576307e-01  -3.8880191131559372e-01 -2.6411538373166880e-07 9.3865658567522392e-01  -3.4372470850700404e-01 2.7205277582690019e+00 -1.6063158812850198e-01  9.7754275209341690e-01 3.0103455738304534e+00 2.0368575457001786e-01  6.3460171378605690e-01 2.5539688324700904e+00 2.7666265656181338e-01  -1.0371937795289370e+00 1.7011245058103805e+00 3.3579660248260712e-01  -1.0940950696827008e-01 2.3197326712768471e+00 -5.5102854088249595e-02  -1.0354892071841888e+00 1.1322666424279058e+00 -2.4793399297864875e-05  -1.0202470138304045e+00 3.7752827367201325e-01 -2.4482993483240875e-05  1.0355417517573786e+00 1.1322474334083314e+00 -1.1927024167201785e-05  1.1107581961934965e+00 1.8839307822289999e+00 -4.7985756004744289e-05  1.2317165739177942e+00 2.6358578670245358e+00 -5.1018303989485228e-05  -1.2311473111337283e+00 2.6359525016133651e+00 8.4882129791223489e-06  -6.3378513795346447e-01 1.7372416384565037e+00 6.8249590870482846e-01  1.0617784261223133e+00 2.2614358258224363e+00 3.5278412143452381e-01  3.7948731777032718e-01 1.4710826511736073e+00 7.5617921576239455e-01  1.5252605539450544e-02 1.7308071332287123e+00 3.9138823427520364e-01  4.1326541503134190e-01 4.2463345184584894e-01 9.2154036267327810e-01  3.1518894936895758e-01 2.0388732915192400e+00 3.0246561244218673e-01  -3.1386362744672430e-01 2.0680173575495346e+00 2.7909309290851858e-01  -9.7229974758697058e-01 6.9453110687612241e-01 3.3558429730226236e-01  -1.0105976539798827e+00 1.3493041349610646e+00 3.0804491579504839e-01  -1.2286668283606313e-01 1.1980008627365459e+00 8.7376095288956634e-01  9.9660945952874880e-01 9.8369227820092164e-01 2.8397591109465603e-01  -7.4552758480700254e-01 1.1991613061277804e+00 7.2659200999160067e-01  8.6205108691378607e-01 2.6445713918935732e-01 5.4788399982609648e-01  1.8823854382209901e-01 2.4543794538168271e+00 -1.1401371669903057e-01  -6.6462422495332252e-01 2.6134704091213559e+00 2.6603959984456976e-01  -3.3269780358823547e-01 1.5528917182629760e+00 6.7718634129845012e-01  9.6162155139577365e-01 1.5907425418660734e+00 4.8753157118297474e-01  -7.1198814170039804e-01 2.3580452495640900e+00 4.2567836910567858e-01  6.6978685047197528e-01 7.9827494677838473e-01 7.8026203010105499e-01  -9.7154500260112631e-01 3.0819690710210690e-01 3.1396480769037172e-01  -6.4451517797870872e-01 5.6907898717271377e-01 7.9637775059904481e-01  -4.0069533796176482e-01 7.2191541504359702e-01 9.1751251645243070e-01  8.4336251951567032e-01 1.1851418316206126e+00 6.2614417925881505e-01  -8.5703847687189416e-01 8.0617530612440247e-01 5.8457594455879203e-01  -7.0307563774629322e-01 2.8927464107434703e-01 7.4104074811794662e-01  -8.9516054512262422e-01 1.8330747746307841e+00 5.6452073282777193e-01  -1.4733853946650832e-01 2.5482821645966131e-01 9.9335124194164970e-01  1.9810117744508546e-01 2.0630200659046424e-01 9.8830107411467816e-01  5.9716700719754723e-01 2.3204469740023753e-01 8.2508434675260722e-01  -4.1472046002399143e-01 1.0351017116341301e+00 9.0265901539345150e-01  8.3367366542662291e-01 2.4300976352408861e+00 4.1717398500360980e-01  7.9311215173579341e-01 2.7785507825046163e+00 2.5171619473011586e-01  4.8368936497858861e-01 2.8065428392046430e+00 -4.7816135953812094e-02  1.6317821635931015e-01 1.5718910852517702e+00 5.6009216145194052e-01  5.0233743757117744e-01 1.9995693072202461e+00 5.0233525137951862e-01  1.0681311214037688e+00 1.6981353083774073e+00 1.9967087766625499e-01  9.0081881669531449e-01 2.0976326482808187e+00 5.0910474786569593e-01  -1.1720631041470722e+00 3.0221426040492054e+00 1.6259803578661622e-01  -1.1145347368870855e+00 2.7415156177594411e+00 2.4308272753157123e-01  1.1623061196159004e+00 2.8114688615076755e+00 1.9428947846115432e-01  9.8360122323262333e-01 2.6276269593891460e-01 2.7049396822735094e-01  1.4242132185502265e-01 8.9664834676145955e-01 9.5906386813725919e-01  -4.6984994069162034e-01 2.6205325680752627e+00 6.6203170294758265e-02  1.1642104060774146e+00 2.4586958434136004e+00 1.9521631812328533e-01  -1.5145274177822185e-01 6.2390107468477574e-01 9.7200478555278036e-01  -1.1343594857673576e+00 2.3573314570029211e+00 2.4325329428393980e-01  5.2604337898834563e-01 1.6808886800037606e+00 6.9066034901491158e-01  1.1425452431855021e+00 2.0709688999211333e+00 -2.0231223304391844e-05  4.5396505873189497e-01 2.5741998552704302e+00 7.8283926836845610e-02  -8.4477561707439086e-01 3.4896657640949152e-09 5.6446293009895543e-01  -5.0398633438156526e-01 2.2180716166819194e+00 3.6879931419758893e-01  1.2176476215321252e-01 2.2117945234082574e+00 3.4425807855401960e-02  -7.8876814323977051e-01 2.9640651272335439e+00 1.5874316704982672e-01  -4.9065127523840818e-01 1.9955069235467358e+00 4.9651454075199020e-01  -1.0105056239520807e+00 8.9953216038682349e-01 2.0264903179477370e-01  -9.2080298406993144e-01 1.2448262544972890e+00 5.1668052764278838e-01  -1.6381834993413003e-01 1.8780623045523261e+00 3.1451507246998311e-01  -8.7927742643533657e-01 2.7290062742717658e+00 3.0174482713110434e-01  -1.6014648281111507e-01 1.6208787680544554e+00 5.1854723147855897e-01  -2.8634276269192710e-01 2.4983109473565488e+00 -6.0445418119894921e-02  4.6684561080825476e-01 2.2359523675930708e+00 3.2015134824105618e-01  -6.8573306059782169e-01 1.4317939077048709e+00 7.5450152365424783e-01  8.1537371855446583e-01 6.7120775790513154e-01 6.3433336470457113e-01  -8.5270471602641984e-01 2.3578454027966914e-01 5.6098584163631626e-01  9.9550284901276309e-01 7.3495734245453093e-01 2.5407711846671954e-01  5.4704919242139327e-01 6.1052778348199654e-01 8.5803249946026061e-01  5.7097013867900070e-01 1.3380774357057108e+00 8.1512068429904339e-01  -5.1409360106689361e-01 2.0401010497240654e-01 8.7689010176269455e-01  -2.5345539644932863e-01 2.2225136052167733e+00 1.0858488855106337e-01  -1.0212629237891042e+00 5.6624671328845755e-01 -1.5472989363923849e-05  -2.3918623001993133e-01 1.3662746805492085e+00 7.7061988153138761e-01  2.5607211757249715e-01 5.9323110393975975e-01 9.5852865674184939e-01  1.0274552983599989e+00 1.4912727465903988e+00 2.8961048409180956e-01  1.0449940449672470e+00 1.3208157093254180e+00 -1.4839122570345925e-05  -8.9189589414999837e-01 2.2275886734577646e+00 4.7877467506296106e-01  9.0011651790062652e-01 1.3914351492943002e+00 5.6548109862356921e-01  -9.9647425329700146e-01 -6.8923467404164384e-07 1.9820649579429753e-01  4.0313542277770142e-01 1.0268072933517034e+00 9.0619833300412000e-01  1.6589127566663933e-01 1.3509313857398084e+00 7.5258141112456256e-01  -1.0896070892879863e+00 1.9202394032965568e+00 2.4313597778985441e-01  2.0516557830710414e-01 1.8500385287122612e+00 3.6041441605737934e-01  1.0212686911896047e+00 5.6623767735888364e-01 -2.7407517518817836e-05  1.1094407891962246e+00 2.0612416481250588e+00 2.3768698354271725e-01  -8.4610504483043902e-01 1.0302614962093171e+00 6.1295454375666925e-01  -1.0156167281896018e+00 1.1408285869303147e+00 2.2723441703121247e-01  -1.0186264794030708e+00 1.8880910257771838e-01 -3.3233640812486908e-05  9.4099032349364464e-01 1.0931294701247556e+00 4.5944319764321140e-01  4.0966791924521795e-01 2.1181233313836298e-01 9.2715494816061828e-01  -1.1419687076372607e+00 2.0710720916372227e+00 -3.1364951887325832e-05  8.5258042856934291e-01 4.7295243862733716e-01 5.7285081941057925e-01  1.0026254860114050e+00 4.5643136331326023e-01 1.9623835921870866e-01  9.2616597295603131e-01 7.2496492667904000e-01 4.5714832360876900e-01  3.6763766595637226e-01 1.2847735486621585e+00 8.5505239193913030e-01  9.1073491767065906e-01 1.7976539748581952e+00 5.5491070947600296e-01  -1.7847210598625398e-03 1.0454806886340371e+00 9.4342776611460433e-01  1.0208841406806093e+00 1.1752926488544555e+00 2.0704475704188369e-01  -1.0042043017644047e+00 4.7203291432275973e-01 1.8829030838751479e-01  5.9392179894289930e-02 6.9312839238280777e-01 9.7454731093338165e-01  -9.4961324133358382e-01 4.9590690823693417e-01 3.8597959721771430e-01  -6.0137327308245225e-01 1.0855146622975040e+00 8.2505839500371292e-01  -9.4090470983697616e-01 2.0266281198726297e+00 4.9904364053398298e-01  -1.2535025471062178e+00 2.8258625133270110e+00 7.5305896954504944e-05  7.6872841665241920e-01 1.0114381466573685e+00 7.0015110686163473e-01  6.2040800043284849e-01 2.7190165873858190e+00 1.6488036488916391e-01  -5.0722774348749666e-01 1.5146161627437811e+00 7.6589927273205383e-01  6.8822466095537149e-01 2.0444259105737861e+00 5.6060650829611547e-01  7.2439057731262735e-01 1.6686289300402268e+00 6.8952395468423155e-01  -1.8810881471340313e-01 2.6421795623336721e+00 -2.6223829408306315e-01  -6.0783245221541866e-03 2.4471178475085571e+00 -1.7881775907172279e-01  -1.1387983590824444e+00 2.1674833336861674e+00 1.7722145063458841e-01  9.9647569942407122e-01 -7.0354343313886186e-07 1.9820945989993699e-01  7.8834292486910196e-01 2.9636563448040261e+00 1.5729066555582505e-01  1.9820787855653182e-01 1.6152158637623331e-06 9.9649245888575644e-01  -1.9821650657299933e-01 4.7651247518109596e-07 9.9648281090202206e-01  5.6445639032699702e-01 1.5287682269611882e-07 8.4477756732644027e-01  1.8693680135862914e-01 2.6419527111108940e+00 -2.6281766516853611e-01  8.4477861562710610e-01 -1.5877963923251474e-07 5.6446236459498134e-01  1.1718120558569298e+00 3.0222463852141552e+00 1.6219602993188062e-01  -4.8433262413835559e-01 2.8069381760964975e+00 -4.6738982460173287e-02  -5.6446385775453811e-01 -1.3649719224477994e-07 8.4477118832597020e-01  -6.9813191410779754e-02 2.1606969011507884e+00 5.7977019943745524e-02  9.8460716472714072e-01 2.8112092091460767e+00 2.7181513525168566e-01  4.9033078411996867e-01 2.4375703281225025e+00 2.1151632592078282e-01  6.4719266658561858e-01 2.3892748733110447e+00 3.7793063375076968e-01  8.1185447918261433e-01 2.6071368142585505e+00 3.3987692143226350e-01  3.4766040571036128e-01 1.6205175851094593e+00 6.3809499668552583e-01  -7.2133535549390548e-01 2.7887599992204235e+00 2.0678079757565998e-01  -3.3137302067196889e-01 1.8892685906908913e-01 9.5621847004344707e-01  -1.1754210259705171e+00 2.5526186162063014e+00 1.8359926929851184e-01  -9.4803562367626015e-01 1.6422036399866335e+00 5.1387575768106919e-01  -1.0464825414225167e+00 1.5321919843325327e+00 2.1159784864296477e-01  -1.0819377893040656e+00 1.6968633326777036e+00 -3.3392296603444809e-05  -8.0694558451108078e-01 1.6502032655837626e+00 6.5395902412312268e-01  -5.6966736196639300e-01 3.9098189265601202e-01 8.4513921452498098e-01  1.2541945643914632e+00 2.8257390200095469e+00 -1.0302486995783200e-05  -1.0288424031900139e+00 9.4362486701080928e-01 -1.7185101018031456e-05  1.0186122894006757e+00 1.8880714748414862e-01 -2.9244982065657989e-05  1.0822409411887925e+00 1.6968049815932427e+00 -1.7931936432805371e-05  1.0288765823733912e+00 9.4360998697414422e-01 -4.8576794675030773e-05  -1.0449159535863719e+00 1.3208384048523085e+00 -3.1861037573722344e-05  1.2047534739544932e+00 2.4467240895518922e+00 -2.3589797944841764e-05  -1.2042303536096042e+00 2.4468129999209141e+00 9.0405554939960046e-06  7.4195998551793074e-01 2.8671568661330432e-01 7.0267489582458575e-01  -1.0165285999651039e+00 1.8712801213829007e+00 4.1906677904463352e-01  -7.8766037921383758e-01 6.3439010178340371e-01 6.6615529538497331e-01  -3.2325351798282448e-01 1.2095609657010395e+00 8.8484055318949451e-01  -7.2297139886532857e-01 1.8986897732177632e+00 6.1964354203717986e-01  -4.3805346724611199e-01 1.7192515188122610e+00 6.3107258257428711e-01  -5.6136713220376555e-01 2.3893119463057775e+00 3.1477598883280883e-01  5.3290582831816347e-01 8.9863195933104123e-01 8.6202457636462571e-01  1.8163240453900570e-01 2.0811583797675168e+00 1.6565211001127722e-01  5.0504152463268415e-01 1.8401309830980572e+00 5.9735060527288020e-01  1.0487722551723182e+00 2.4463707852988970e+00 3.4207469626463188e-01  1.1458675623802521e+00 2.2371947161956860e+00 1.8598496801904912e-01  1.0955262377811681e+00 1.8818377929058683e+00 1.8966187662438730e-01  -2.3100060641842687e-01 1.0549267876836925e+00 9.3356526636656134e-01  7.1808662306862825e-01 1.2490078530277178e+00 7.4805866245258645e-01  5.5871874155622359e-01 1.5161027181503890e+00 7.6626573909670248e-01  -2.0529706847676718e-01 4.3885670215936778e-01 9.7515810429059890e-01  -9.9894138765317864e-01 1.5128870723760859e+00 3.9187584801559017e-01  -1.0269472793428607e+00 2.3071360997993251e+00 3.8347750664096591e-01  -1.0106225197755518e+00 6.4889413361387316e-01 1.6238071234181575e-01  4.1969526494275530e-02 1.8725188505589454e+00 2.8013250926785466e-01  5.7441929760220933e-01 4.3549129428539252e-01 8.4245547616477645e-01  2.3901870670532324e-01 4.1399733035414249e-01 9.7046977320798189e-01  1.1510366088092003e+00 2.6350362513252241e+00 2.2152863288025215e-01  8.3781087130973375e-01 2.2623385918936338e+00 4.7917909954562588e-01  -5.2724137811100535e-01 2.5187424352286651e+00 1.9933248288950978e-01  -5.4978631582117266e-01 1.8696170920814601e+00 6.0350740182191642e-01  1.0337461055700883e+00 2.0676480508753983e+00 3.9790912378916748e-01  -4.8162033302921129e-03 1.2936033681122672e+00 7.7443172412875283e-01  3.3625298589492103e-01 2.1860114051537116e+00 2.1433579146477583e-01  3.5395590284086459e-01 1.9211325052568966e+00 4.2674631454513789e-01  1.8649877293248181e-02 1.8087197778640618e-01 1.0069608072566807e+00  -8.1072052753576884e-01 2.5786937262032947e+00 3.5344823205226150e-01  1.7567415181015258e-01 1.7086891985888559e+00 4.5542411472620903e-01  3.2664356550465851e-01 2.4659148317556010e+00 4.1622706023431684e-03  -3.1608826016191577e-01 5.7154769503266567e-01 9.4667380021610092e-01  -4.8780167344053738e-01 5.6754353141234315e-01 8.8793008423172104e-01  6.0955904713750321e-02 2.3276056371172658e+00 -7.6020416691158957e-02  -1.7754346158606529e-01 2.0757010438518644e+00 1.6734092275287785e-01  -9.0286406899200888e-01 6.3469779795468029e-01 4.9752601130673535e-01  -9.6781173815617161e-01 8.6108071526497076e-01 3.6587983027602322e-01  -3.7397602890370990e-01 2.2192478525485195e+00 2.3034291699445333e-01  -3.1270385045011778e-01 1.9321908495980444e+00 3.8022908584709580e-01  -1.0095310412724998e+00 2.8321273350923110e-01 1.4526139032389451e-01  7.8738658888890956e-01 1.3572290592028996e-01 6.4539056041171416e-01  -6.4310259787908064e-01 1.3889683395735816e-01 7.8859914127791275e-01  -1.0803444030381639e+00 1.7588486100107836e+00 1.6969111792483085e-01  1.0353978933717318e+00 1.3502619351882630e+00 1.7924194096457863e-01  -4.9936671356546475e-01 8.7443427551187713e-01 8.7752516987002160e-01  -5.9479696443795804e-01 7.3430808400956082e-01 8.3032840868254465e-01  7.3473033941114096e-03 1.5999742363961331e+00 4.9801167363039084e-01  -9.7414749991678673e-01 1.3927809770795330e-01 2.9536588961626947e-01  -5.9098227406542869e-01 2.7024683790238733e+00 1.4762866917836884e-01  1.0184790740749472e+00 8.4947099099849122e-01 1.3665833059291546e-01  -1.7501823402694011e-01 1.7521923218160285e+00 4.2023711706960698e-01  6.8436138180047468e-01 6.3474838978576875e-01 7.6650941698022890e-01  -9.1233661273021405e-01 3.5523194557987120e-01 4.6300173068989958e-01  2.2184511283209957e-01 2.3378526184756305e+00 -2.8301533542804966e-03  8.5492185419703870e-01 1.5819485962406810e+00 6.2309309873041008e-01  5.0198154582303578e-01 1.1946377907328187e+00 8.6054591957208215e-01  -3.1132549761600870e-01 2.3731835693466850e+00 5.2655084581000960e-02  8.2995607302742591e-01 1.9629554643005136e+00 5.7450540783723369e-01  1.0014107911197179e+00 1.7392287806256725e+00 4.3282884760518331e-01  -7.4473402610693062e-01 4.5615361640546587e-01 7.0603149897295259e-01  2.1332900036092209e-01 7.5042383604521579e-01 9.5815655769701091e-01  -5.8599850955225885e-01 2.1302685827903285e+00 4.8274710730222437e-01  -6.1481672497578366e-01 1.2473409791320906e+00 8.1059442566071638e-01  -7.3204669194826610e-01 1.0342710491131388e+00 7.3456871390033640e-01  -8.0009659629094754e-01 1.3458206623899438e+00 6.7962333047649959e-01  9.4617772966872848e-01 9.3658839158128393e-01 4.3071801310668717e-01  -9.7749340921486949e-01 1.1786774235339499e+00 3.8042746379417158e-01  8.9772985599881960e-01 1.2501140283844003e-01 4.7953920479806927e-01  9.1738526719050939e-01 3.8369278238168020e-01 4.5419301129265871e-01  -6.4790819404105426e-01 1.5859690779106657e+00 7.3330286584533189e-01  9.7626944047919717e-01 1.4429611725115352e+00 4.3385576756117433e-01  -8.9145186449322122e-01 2.38298