<?xml version="1.0"?>
<VTKFile type="UnstructuredGrid"  version="0.1"  >
<UnstructuredGrid>
<Piece  NumberOfPoints="758" NumberOfCells="1386">
<Points>
<DataArray  type="Float64"  NumberOfComponents="3"  format="ascii">-1.570796326794897 3.048 0  -1.570796326794897 0 0  1.570796326794897 0 0  1.570796326794897 3.048 0  0 0 0  0 3.048 0  -1.570796326794897 1.524 0  1.570796326794897 1.524 0  -0.04609926118424437 1.524 0  0.7853981633974483 0 0  0.7623485328053261 2.262242601661362 0  -0.7853981633974483 0 0  -0.7853981633974483 3.048 0  0.392699081698724 0.7745759241961347 0  -1.570796326794897 0.762 0  -0.8084477939895706 2.0955 0  -0.68277245543452 0.8915343570675713 0  0.7853981633974483 3.048 0  0.778743707341909 1.468410948960538 0  2.780093748954961e-16 2.285302774973185 0  -1.570796326794897 2.286 0  1.570796326794897 0.762 0  1.570796326794897 2.286 0  -0.9375370967763674 1.47348297960658 0  0.9831575747762593 0.9003629142671278 0  -0.3926990816987241 0.4064697549061488 0  1.177419588818055 1.905 0  0.3692901340097942 1.880893989147954 0  -0.4920225169641509 2.564371687128368 0  0.3926990816987241 3.048 0  1.178097245096172 0 0  1.155705348811136 2.643920532523289 0  -1.178097245096172 3.048 0  -1.178097245096172 0 0  -0.1391296372266528 0.8873724190154949 0  -1.10527745318919 2.528282743051346 0  -0.9817477042468103 0.4742759268549471 0  -0.3416666987802651 1.923944646262223 0  -1.570796326794897 1.905 0  -1.156555306160469 1.030861936336814 0  0.7648449098493205 0.4764142032227 0  0.3926990816987241 0 0  -0.4820376416180818 1.326151321396512 0  0.06374421723344185 0.4545169930886408 0  0.1972735722393064 1.163324878565267 0  0.3900417218314142 2.566922767651637 0  1.570796326794897 0.381 0  1.188877612935585 1.295195418509834 0  1.179914028402171 0.5308585702661928 0  0.7660075594126428 1.865233039449035 0  0.6330293131838399 1.095171663968746 0  -1.201232463242587 2.144287146570887 0  -0.3926990816987241 0 0  -0.3926990816987241 3.048 0  1.178097245096172 3.048 0  0.7684409382397209 2.649499271873753 0  -1.236954997304436 1.7145 0  -0.1088573452899617 2.666651387486592 0  -1.570796326794897 1.143 0  -1.570796326794897 0.381 0  1.570796326794897 1.143 0  1.570796326794897 1.905 0  1.570796326794897 2.667 0  -1.570796326794897 2.667 0  -0.6730839067294777 1.743003792473746 0  1.199831389396789 2.275437921225198 0  0.3936837537618041 1.495643752599615 0  0.01539369169800942 1.928544709491661 0  0.4156551272669651 0.4219033286010089 0  0.3401546043708642 2.225103550856524 0  -0.3379897306391274 2.262671266279809 0  -1.23624174049596 0.7000907110925838 0  -1.265224057170889 1.360131453617764 0  -0.1224339018241312 1.210043725539656 0  1.289286200625578 0.9918698881707442 0  -0.7751142346211329 1.197848666814478 0  1.003546186550495 0.2660297686099683 0  0.1963495408493621 2.808538634159524 0  -0.8079023568959116 2.703551618159924 0  -0.3480226984353056 1.610059855391589 0  1.075147893506229 1.598068412087719 0  -0.8290627893979112 2.399544545867518 0  0.6965048925255637 0.7972100472372819 0  -1.257765094876752 0.3107645483825858 0  -0.6724835324263325 0.5684215760013651 0  -0.3995059642389676 0.7173610149075536 0  0.9136951972244611 1.187564504803626 0  -0.964259350608907 0.8095514380783081 0  -0.7565990314517038 0.2897049735129544 0  -0.9603859887840651 1.834914433810327 0  -0.1457055965762301 0.2521630699436873 0  0.1963495408493621 0.2041911848053476 0  0.6241974196550791 0.231695999252114 0  -0.4098815011312292 1.029160072548571 0  0.9592800715482012 2.452820690856482 0  0.9648684169153161 2.840751931000357 0  0.5890486225480862 3.048 0  0.164631037784102 1.698913854044779 0  0.5664480837073581 2.070920238540226 0  1.374107957806476 1.7145 0  0.9861079629544779 2.102471438422718 0  -1.374446785945534 3.048 0  -1.288827800789186 2.762781313597598 0  1.353232957571468 2.835634774483438 0  1.302158670506274 0.2650078124691045 0  0.1394669809465775 0.8907702620243092 0  -0.5631487221059602 2.830992231257464 0  1.372837635547072 2.483038902756259 0  -0.1493395228831287 0.618617259260858 0  -1.32327048447753 2.378769394323546 0  0.56080204725298 1.699622905297025 0  1.570796326794897 2.0955 0  0.5403456747786348 2.786446773498672 0  -0.9817477042468103 0 0  -0.5847039960246873 2.326882432521036 0  0.1225428891326576 2.526494255738436 0  -0.9817477042468103 3.048 0  -0.5522901559753841 2.071668786267058 0  -1.370864794258017 0.9075071715671403 0  -1.043891045637083 1.250611220450313 0  -0.1652643923634778 2.09141301924679 0  -1.044446740946883 2.764982067459552 0  -0.1610370079820225 1.763280243096074 0  -0.3136912237752232 2.810498886211121 0  0.5400974078002052 2.370472734822523 0  -0.7009161718414544 1.427243880175582 0  0.902907438200502 0.6735032943420574 0  -0.9879196222361604 0.2371379634274736 0  1.319268546233604 0.7412771512308228 0  0.5578373583610097 0.608241627784878 0  0.5756483102040615 1.332636919938113 0  -0.5281701577409 0.2032348774530744 0  -0.266729509930448 2.489223923247521 0  -1.570796326794897 0.5715 0  -0.2430656531629531 1.405631921096758 0  0.253622337931223 0.5884397663452474 0  1.284044721043478 1.50372037617638 0  1.570796326794897 1.3335 0  -0.9904333867980613 2.235882060371517 0  0.9871146764618406 1.395690276854986 0  -1.374446785945534 0 0  0.3981951765262902 1.020833864419675 0  0.1670583512016766 1.405384478716078 0  -1.330327693484763 1.938638984813805 0  0.2106653067452682 2.040805097078886 0  1.570796326794897 0.5715 0  1.334822181490566 2.081373939821734 0  -0.9303227889097604 1.033236710715967 0  -1.34639228476592 1.150776798768373 0  -1.570796326794897 0.1905 0  1.106697207481837 1.099709897393925 0  0.4137866939027022 0.2104288000383385 0  -1.570796326794897 2.0955 0  0.9761377489246634 0.4754251272674608 0  1.377108465632662 0.4605024587280874 0  1.108114944719677 0.7297638044096917 0  0.3695908229138113 1.285681859811955 0  0.9799112840676307 1.800306505551499 0  -0.001696842075803034 1.042028929293442 0  1.366537356420357 1.185723700290463 0  -1.385029840108318 0.47625 0  0.05842649915411911 0.6874537157920781 0  -1.183268988745763 0.4997334438341218 0  -0.6073502281622543 1.081347079085406 0  -1.026941765261019 2.031536576622642 0  -1.570796326794897 2.8575 0  0.8159726599830506 1.011928543199529 0  0.7652782693277244 2.849245002237192 0  -0.5252326280373281 1.520125074885265 0  0.7648326174724897 2.063743853392348 0  0.757099741434616 1.666331708950521 0  -0.1963495408493621 3.048 0  -0.005410422648647092 2.843333256403111 0  -1.395368347654653 2.19075 0  1.374446785945534 0 0  0.9817477042468103 3.048 0  0.1963495408493621 0 0  -0.1963495408493621 0 0  0.5890486225480862 0 0  0.1963495408493621 3.048 0  0.9817477042468103 0 0  1.374446785945534 3.048 0  -0.5890486225480862 3.048 0  -0.5890486225480862 0 0  -0.06865319188571758 2.471928549109083 0  1.159049337209348 2.838090892449816 0  0.5817075150535711 2.596909954318943 0  0.7656515661107315 2.455866896253367 0  0.9620790410056582 2.647119292933887 0  0.3676829480103987 1.68739481709134 0  -0.8886101495223063 2.878912500124773 0  -0.3317793704126089 0.1873756770788371 0  -1.383208664444332 2.577695923010364 0  -1.043597917648523 1.648216005744782 0  -1.362178343413552 1.546177620526679 0  -1.570796326794897 1.7145 0  -0.8462722504471433 1.648434957877788 0  -0.588076822054871 0.3899352838051667 0  1.570796326794897 2.8575 0  -1.570796326794897 0.9525 0  1.570796326794897 0.1905 0  1.570796326794897 1.7145 0  1.570796326794897 0.9525 0  -1.570796326794897 1.3335 0  1.570796326794897 2.4765 0  -1.570796326794897 2.4765 0  0.8103777117362174 0.287468585434799 0  -1.145334531235929 1.881885620422454 0  -0.8620560674467429 0.6361265362229395 0  -0.321688879263093 1.207848147265888 0  -0.7798551871678058 1.904240998338365 0  -0.4724954359209014 1.769587110195458 0  -0.667402576232105 2.495985359319255 0  0.5365063314111709 0.8945566719544227 0  0.1855702280441107 2.342745654422604 0  0.55510120733165 1.88540118775351 0  1.188295809121239 2.460939894898248 0  1.38587897409014 2.260870763688798 0  1.383978812419919 1.901097375082534 0  -0.2265735189171196 1.049795314962436 0  0.7387890113368257 1.246392780742437 0  0.5763234466275948 1.516457524623135 0  -0.203279258075353 0.4348372558382012 0  -1.179202350299698 1.523245956950107 0  -1.151844216720993 2.318990544544152 0  -1.410806081599612 0.6547540757597369 0  0.04190096621848406 2.108399609871347 0  0.5925649981629265 0.4343292987553075 0  0.2371113691258682 0.4102816185532077 0  1.334103818253725 2.657728219912091 0  0.9405077369493808 2.275181409651143 0  -0.633962040105568 2.669303984283053 0  -0.6045614816381242 1.904349918307267 0  1.159697673803787 2.079238591118184 0  -0.004643801590645341 1.347662554528907 0  0.3691400131247499 2.395423267764724 0  0.3855005143298051 2.055603978165229 0  0.01839821075864462 0.1788084577298442 0  -0.9568120219060965 2.61629404172056 0  0.1783135820912846 1.871116340262054 0  0.3649950158263953 2.745288921627024 0  -0.3142054567155264 0.5671999812317062 0  -0.4933549623779417 0.564740705097546 0  0.06092775470575962 2.685867440722903 0  -0.1801827362748675 2.337517890002858 0  -1.063355415037434 0.6386189748554 0  -1.205242865599393 0.8676070232612285 0  -0.4176020549597784 2.412196127179313 0  -0.3347051678178828 2.093252344225509 0  -1.427772711006951 0.2857500000000001 0  0.8835729338221293 0.1362887052191026 0  -0.6831011505337878 0.1389086130988801 0  -1.403875662049666 1.77648180985222 0  1.394165436236593 1.362588987767805 0  -0.5007942298153729 0.8700626692351643 0  -0.6093220848169366 0.7321530406295067 0  0.007534593095922887 1.760126887057542 0  -1.276272015520854 0.140425968067263 0  -0.7270478511000733 2.847016806985676 0  1.436331331726002 0.85725 0  -0.1770320080670663 1.927167796173981 0  0.7200726153501196 0.6345534912379586 0  -1.099983122078282 0.3577316115390257 0  0.2324759135153202 2.648405702327079 0  0.9054371869972004 1.582409569434113 0  0.5000672234640285 1.188708149930449 0  -0.340793734207542
[...]
<PointData  Vectors="phi"> 
<DataArray  type="Float64"  Name="phi"  NumberOfComponents="3" format="ascii">-1.1571509740203856e+00 3.0432484397436483e+00 6.7962431625412140e-04  -1.0160090673611808e+00 9.9581010864072808e-08 -9.8874321289539413e-06  1.0160091929452184e+00 9.0283136685474282e-08 -1.1716131680162150e-05  1.1570640691599579e+00 3.0432431111274458e+00 5.7784994055612156e-04  -3.8423617768875195e-06 6.3047327620515191e-06 1.0160317784792978e+00  -1.5488775622946643e-03 2.4566312705028288e+00 -6.9374297477113644e-01  -1.0901966266458767e+00 1.5123529670598508e+00 -1.7158796323260541e-05  1.0908715785002985e+00 1.5122510189133445e+00 -2.7859265880033006e-05  -4.7311532777552970e-02 1.2595421557358275e+00 2.5631947164542129e-01  7.1842689579596386e-01 -4.1755677493739817e-07 7.1841600368577330e-01  5.6794555487741483e-01 2.1338356858266927e+00 1.9650784799730781e-01  -7.1842489230075457e-01 8.8228027122169977e-07 7.1841714373811971e-01  -5.6487029906766439e-01 2.7908523328742469e+00 -2.3331340756654587e-01  3.7651545405589271e-01 7.5420241687416445e-01 8.2117234975403375e-01  -1.0217872355304134e+00 7.5712498974313558e-01 -2.2875303054177406e-05  -6.1750647315879670e-01 2.0121080217585696e+00 3.1104186791989547e-01  -6.5310407447195484e-01 8.9400130887982887e-01 7.6762329275906616e-01  5.6366241209704349e-01 2.7900039472154599e+00 -2.3569203891856413e-01  6.7273964606358128e-01 1.4502379571369219e+00 5.8131449116894152e-01  -1.1262108083784047e-03 1.8683975734025990e+00 -2.0441146688059655e-01  -1.1667467482015965e+00 2.2746545689710587e+00 8.3491141884062134e-05  1.0218767692209121e+00 7.5709724743947693e-01 -3.0248804101674079e-05  1.1674477523976099e+00 2.2744903174635072e+00 -9.4584332433676901e-05  -8.2861833673201135e-01 1.4720448480448161e+00 5.5281115358527311e-01  8.8040291242940738e-01 8.9947193758067034e-01 5.7141276303222643e-01  -3.9647328468257287e-01 4.0830015989394691e-01 9.3651772321884830e-01  9.8768107252172799e-01 1.8991338208369801e+00 3.5631996178915670e-01  3.2460255863923210e-01 1.6403769247402191e+00 1.6715555081001088e-01  -3.9350980423706988e-01 2.2553620695228616e+00 -1.4992799193162751e-01  3.1729118142513191e-01 2.6043654853993066e+00 -4.9314834020211967e-01  9.3865815607347303e-01 -3.9928032944661743e-07 3.8880535594529964e-01  8.5932578939493576e-01 2.5993271299731084e+00 1.7970967629193049e-01  -8.3249123432816619e-01 2.9646435808808582e+00 1.2411800654001002e-02  -9.3865789398138766e-01 -7.3808524179150251e-08 3.8881464381669362e-01  -1.3865575848322245e-01 7.7738245287912633e-01 6.7524073527234008e-01  -8.2884837154753566e-01 2.4830190295935646e+00 2.1649086146365723e-01  -8.5598547854472529e-01 4.7313230894801284e-01 5.6848847744810449e-01  -3.0615597546540757e-01 1.6635421704332840e+00 1.2671870543715222e-01  -1.1363766639674966e+00 1.8917694085606727e+00 -2.9075199914267007e-05  -9.6779883367431518e-01 1.0268294470080614e+00 4.1403306246466431e-01  7.1881251397830992e-01 4.7692318430300235e-01 7.4042164295363855e-01  3.8881494240122971e-01 2.0805709762774374e-06 9.3866946444846011e-01  -4.2165439722902964e-01 1.2391029642954849e+00 5.5412445534350729e-01  6.4267937407893536e-02 4.4556517059853562e-01 9.5096856315873202e-01  1.9152019685086222e-01 1.0042204086789346e+00 5.1630500034088112e-01  3.2890370790024798e-01 2.2085451125175442e+00 -2.1957160740219797e-01  1.0187047926529036e+00 3.7861102483550740e-01 -1.9430941701244570e-05  9.9917837979833379e-01 1.2900870506109505e+00 3.8154462241171222e-01  9.4789010457542400e-01 5.2837360038130321e-01 3.8900956707858664e-01  6.0636785185041187e-01 1.7987599885108918e+00 4.0495837064067375e-01  5.7991438120514094e-01 1.0833002111237167e+00 7.1424837174310052e-01  -9.8219340425137869e-01 2.1348003949764300e+00 3.1088032073269450e-01  -3.8880270006732781e-01 -1.1884223498912381e-08 9.3866410023882552e-01  -3.1954688624074756e-01 2.6050158009735989e+00 -4.9158369181424977e-01  8.3174338324181274e-01 2.9638165508949212e+00 9.5657032064273059e-03  5.5585625221820889e-01 2.4572165029703079e+00 -1.6348989381014551e-02  -1.0354190855759595e+00 1.7081495845556804e+00 3.2580928819416438e-01  -1.0933102435973055e-01 2.1848800185435047e+00 -4.1852173599169518e-01  -1.0441878464734213e+00 1.1351400606879309e+00 -2.2131353151074958e-05  -1.0187051720031670e+00 3.7862476755058727e-01 -2.4683719417252910e-05  1.0445636582767730e+00 1.1350792051941980e+00 -1.3656903221536530e-05  1.1370687260597632e+00 1.8916413809220647e+00 -5.3515548525956094e-05  1.1740619729486765e+00 2.6595245694695704e+00 -9.2669162430061036e-05  -1.1733078313778749e+00 2.6596364248776498e+00 5.3448043993223134e-05  -5.4219657449675329e-01 1.6612586693543507e+00 4.2633476654069113e-01  9.6205297144582669e-01 2.2619289587394156e+00 2.8674594099439527e-01  3.4753716929340284e-01 1.3403773732771844e+00 4.0821940434608234e-01  1.4647595890843246e-02 1.5817473934977375e+00 9.1459969866066453e-03  4.1865998683984534e-01 4.2387577498178858e-01 9.2803053042354233e-01  3.0146810556155229e-01 1.9065091272260031e+00 -5.2399575092617612e-02  -3.0126120597015593e-01 1.9366279303734153e+00 -7.4379889878848165e-02  -9.7200038681721201e-01 6.9654403454534020e-01 3.3556008894241895e-01  -1.0295257064689660e+00 1.3530544855694961e+00 3.0764019641236079e-01  -1.2251480490899037e-01 1.0225902707798085e+00 4.6474033373814166e-01  1.0027498605848582e+00 9.8635961136047579e-01 2.8439890469611828e-01  -7.0878254878861835e-01 1.1963132909454552e+00 6.6956916831916569e-01  8.6126308895166104e-01 2.6521697030354774e-01 5.4754295641251616e-01  1.8179497025041455e-01 2.3254819462307648e+00 -4.6875399126918549e-01  -5.8086283975197128e-01 2.5205850773162135e+00 -1.9614299502485982e-02  -3.1318165589515401e-01 1.4134422395658834e+00 3.1621667653431801e-01  9.3346015184996878e-01 1.5960548232853564e+00 4.5879621357875000e-01  -6.0785123171669209e-01 2.2776701606662417e+00 1.6257038802409807e-01  6.7141719187503091e-01 8.0026021687194926e-01 7.7564453867612160e-01  -9.7003647785760605e-01 3.0910977184669619e-01 3.1361022205916628e-01  -6.5185667316882745e-01 5.7020277714064826e-01 8.0280286578285120e-01  -3.8764197615826534e-01 7.0618073917465629e-01 8.5156724310352361e-01  8.3503768640152787e-01 1.1893522480074801e+00 6.0969024221790369e-01  -8.6475863053060298e-01 8.0867929357739110e-01 5.8760256857382209e-01  -7.0453558560561069e-01 2.8984228801243528e-01 7.4238383498730842e-01  -7.9713174110295992e-01 1.8190654046716130e+00 4.5376764737033276e-01  -1.4907147436631935e-01 2.5288556335665141e-01 9.9716472177244508e-01  2.0002277832954826e-01 2.0505297559931451e-01 9.9243639098977032e-01  5.9937926334148706e-01 2.3223957752136246e-01 8.2738790826645014e-01  -3.7739124908033050e-01 9.7001953106077665e-01 6.8804471032102410e-01  7.0565103983915400e-01 2.3721841434968969e+00 1.9859811162058208e-01  6.8370736102471874e-01 2.7021438590433320e+00 -3.2786341805760505e-03  4.4235149831254350e-01 2.6965563550399851e+00 -3.6549421902986079e-01  1.6068846766446004e-01 1.4194686818696971e+00 1.7631798330151305e-01  4.4796282611615401e-01 1.8864588681247008e+00 1.8138262370513916e-01  1.0900056773956865e+00 1.7038785086255281e+00 1.9775771275554244e-01  7.7824646820145016e-01 2.0699196703994875e+00 3.6005896548841010e-01  -1.0076965582376411e+00 3.0244749640764579e+00 9.3110896507273597e-02  -9.7183412409957981e-01 2.7376961177766668e+00 1.5932007162305159e-01  1.0228940475663468e+00 2.8168388930059867e+00 1.3652260204078295e-01  9.8227591324413865e-01 2.6353010517661246e-01 2.7022195543502125e-01  1.3836621952058636e-01 7.7969298816130650e-01 6.7246505592215666e-01  -4.2873314939156487e-01 2.5089362437580367e+00 -2.5424778612281862e-01  1.0895596672160013e+00 2.4731383209301403e+00 1.7492521015288720e-01  -1.4834018528408235e-01 5.8165974762699346e-01 8.5899368052895742e-01  -1.0603540636900339e+00 2.3685551855111009e+00 2.1526430939291624e-01  4.5965557386822559e-01 1.5788011726705726e+00 3.8767711708513602e-01  1.1548738444609239e+00 2.0827402249202489e+00 -2.4375891029214868e-05  4.1438438222238877e-01 2.4607766297934455e+00 -2.4578331471710038e-01  -8.4477553275108486e-01 2.2106753732708158e-07 5.6446299120944610e-01  -4.5304538311154080e-01 2.1055567398423705e+00 4.8651194744611430e-02  1.2006237501802043e-01 2.0753897008121007e+00 -3.3091041162731466e-01  -6.9050677456480236e-01 2.8821183219624018e+00 -1.0546022262766862e-01  -4.4001282481242521e-01 1.8809526871571354e+00 1.7346161429247983e-01  -1.0117719482927323e+00 9.0205903917247909e-01 2.0260531572768686e-01  -9.2563286551535318e-01 1.2497188270648512e+00 5.1122953477974664e-01  -1.6271012368706714e-01 1.7354720343126087e+00 -5.7725606989648688e-02  -7.4840859787764158e-01 2.6709754934469272e+00 8.3844805251827081e-02  -1.5889544908179537e-01 1.4702908754527120e+00 1.3686587803856040e-01  -2.7146493583121467e-01 2.3756680205902350e+00 -4.0368742007171982e-01  4.2485427678632376e-01 2.1189688625747434e+00 -8.1585465698537068e-03  -6.0303032228948017e-01 1.3966602241425097e+00 5.8835363043693534e-01  8.2132037638321986e-01 6.7316925160682151e-01 6.3767037016658246e-01  -8.5199987573221869e-01 2.3645040644624127e-01 5.6065748087187373e-01  9.9474349313327493e-01 7.3706012689951417e-01 2.5394093224803005e-01  5.5145820123062927e-01 6.1101706388687627e-01 8.5918716372622084e-01  4.9845566137411262e-01 1.2778235166749958e+00 5.9197843476770651e-01  -5.1662972525853113e-01 2.0393309262156320e-01 8.7991079119066273e-01  -2.4624387246239263e-01 2.0917930277038574e+00 -2.4648937375405927e-01  -1.0193380154194538e+00 5.6788343956703113e-01 -1.5145104758299811e-05  -2.3163052907667708e-01 1.2098409143507778e+00 3.8609901739181945e-01  2.5084457027352280e-01 5.7359867551756560e-01 8.9495790810764697e-01  1.0470439892441763e+00 1.4957857272566479e+00 2.8777547024011219e-01  1.0662320549650297e+00 1.3236024470719812e+00 -1.6199683277853509e-05  -7.6236862426580698e-01 2.1916992084044011e+00 3.0997684127024649e-01  8.7950558218301744e-01 1.3960150153939062e+00 5.3933784852642397e-01  -9.9647571603371310e-01 -5.2524101994092570e-07 1.9820692955417782e-01  3.6710866704205930e-01 9.5908946986905452e-01 6.8696649126015563e-01  1.6330592733832255e-01 1.1863610375315654e+00 3.5592504435796196e-01  -1.0843101811376727e+00 1.9295459246299251e+00 2.3526589872668452e-01  2.0120158527414661e-01 1.7077304971607643e+00 -1.0505969556862570e-02  1.0193701671123769e+00 5.6786108373645394e-01 -2.7848341329021303e-05  1.0864127716254557e+00 2.0722962602993129e+00 2.2606797710067181e-01  -8.5183026276725915e-01 1.0341928001444058e+00 6.1088883291733287e-01  -1.0273462467170700e+00 1.1437151720049203e+00 2.2757385707537897e-01  -1.0176724863986486e+00 1.8934876053017316e-01 -3.3493868713582324e-05  9.5312760052810364e-01 1.0966174977129302e+00 4.6044140171284326e-01  4.1279774347739095e-01 2.1138776952757887e-01 9.3175248449573189e-01  -1.1540319867693969e+00 2.0828437452192370e+00 -2.8619284157191495e-05  8.5309181592255057e-01 4.7431924152446597e-01 5.7336271783551707e-01  1.0009029579890365e+00 4.5775571859657915e-01 1.9601381278103946e-01  9.2887092762880707e-01 7.2707865103882396e-01 4.5806585701552394e-01  3.3425892331203727e-01 1.1616984272345090e+00 5.1890486634409705e-01  8.2144784233698931e-01 1.7886865705428121e+00 4.5995075845740080e-01  -2.1559171185641401e-03 8.7978679699684970e-01 5.5615511844289955e-01  1.0344175239830586e+00 1.1781561851931988e+00 2.0734397936478910e-01  -1.0024348869908331e+00 4.7341107685175415e-01 1.8807230488689991e-01  5.8444094510289993e-02 6.1897367153958460e-01 7.9729465418948686e-01  -9.4818285684670045e-01 4.9737881568054826e-01 3.8565482261883677e-01  -5.5652399689293752e-01 1.0666190830208251e+00 7.1882613544761864e-01  -8.3135946017178308e-01 2.0121118157540732e+00 3.8659957156789426e-01  -1.1676548137363554e+00 2.8519756170071133e+00 1.7767890672950644e-04  7.6445391001737439e-01 1.0147847656690649e+00 6.8760605213353343e-01  5.5079378578388316e-01 2.6193427497616351e+00 -1.3304159532717733e-01  -4.4416388078672947e-01 1.4161554975456605e+00 4.6893704083893140e-01  5.8492638005533493e-01 1.9679238721094785e+00 3.0394270438456672e-01  6.2326790167022461e-01 1.6226931231791841e+00 4.9545267319528707e-01  -1.8022171681982127e-01 2.5180015201171848e+00 -6.1052995973055157e-01  -6.9562555638743480e-03 2.3111800133675264e+00 -5.4426434620483155e-01  -1.1175161805150540e+00 2.1808097899989161e+00 1.7049811149126723e-01  9.9647658074937162e-01 -5.2399912454017544e-07 1.9820963807005723e-01  6.8964013304477167e-01 2.8812526832275038e+00 -1.0820824990528020e-01  1.9820788059783376e-01 -5.2215277682390689e-07 9.9648262108436159e-01  -1.9821462702493367e-01 -2.2145830171424964e-06 9.9647376171373592e-01  5.6445713105115924e-01 5.3798351469647991e-08 8.4477564323964538e-01  1.7732626436973556e-01 2.5176115240750221e+00 -6.1156515915213316e-01  8.4477838811879868e-01 -1.6087403843221642e-07 5.6446219296059474e-01  1.0065684181445582e+00 3.0242807636840037e+00 9.1011926261634457e-02  -4.4407788281410743e-01 2.6972893074799371e+00 -3.6353802719017891e-01  -5.6446299671348976e-01 -9.6867831428757598e-07 8.4477337076351733e-01  -7.0374388932665663e-02 2.0222803200125674e+00 -3.1032282136245337e-01  8.3720150136360150e-01 2.7730188769457196e+00 9.7703207997914335e-02  4.4396046932852723e-01 2.3249433266987229e+00 -1.0998919147091600e-01  5.6019803541395241e-01 2.2962503116737318e+00 9.1395924575841114e-02  6.9117609156410709e-01 2.5389207640513707e+00 1.0041548951326060e-01  3.2543650743029917e-01 1.4836617934273688e+00 2.8045771286027121e-01  -6.3110867997593634e-01 2.7011254733525840e+00 -6.8685138894999984e-02  -3.3400084690524656e-01 1.8828226762613767e-01 9.6062890005856039e-01  -1.0887290378530174e+00 2.5675794586913754e+00 1.6205245806064653e-01  -9.0303517343956730e-01 1.6456102511060591e+00 4.7107547693620799e-01  -1.0714826844081000e+00 1.5363274470124384e+00 2.1087462523518996e-01  -1.1144445190471786e+00 1.7016438399358091e+00 -2.1812149592081880e-05  -7.1290533014191482e-01 1.6279110428332262e+00 5.1978744906495933e-01  -5.7531092079434687e-01 3.9123317031342769e-01 8.5165428799701881e-01  1.1682946762177140e+00 2.8519164000301984e+00 -3.9226284158187308e-06  -1.0292372033141002e+00 9.4628177047055928e-01 -1.6626342115466737e-05  1.0176665925470765e+00 1.8934214832963681e-01 -2.9325528459514248e-05  1.1152195070838400e+00 1.7015207021445105e+00 -1.6769896815034607e-05  1.0294124511447666e+00 9.4624336649819984e-01 -4.6953815432787912e-05  -1.0656757931291299e+00 1.3236848244113375e+00 -2.7660794994132136e-05  1.1737502371529438e+00 2.4669362424927979e+00 -4.3328642741027355e-05  -1.1729833074502829e+00 2.4670477841154623e+00 9.5277457748437017e-05  7.4275984483604696e-01 2.8738148626803584e-01 7.0338778850867212e-01  -9.6417749100660288e-01 1.8763944287178731e+00 3.7945799784634804e-01  -7.9354740685810465e-01 6.3616989320378847e-01 6.6990279821700882e-01  -2.9834837042160495e-01 1.0815665151769145e+00 5.4277208287442091e-01  -6.1443917815407711e-01 1.8376296698375485e+00 3.9343918886704338e-01  -3.9704977035040973e-01 1.5972703574850307e+00 2.9642505178481077e-01  -4.9792292786442099e-01 2.2842206433637826e+00 7.2681618654882093e-03  5.0720867536327396e-01 8.8539721699604268e-01 7.8737005627206347e-01  1.7840583089276021e-01 1.9439510674105116e+00 -1.9972187097135485e-01  4.4705568136104751e-01 1.7291537274797797e+00 2.7988411918693956e-01  9.2108979079868014e-01 2.4372101802770465e+00 2.4428277859989769e-01  1.1117296439287316e+00 2.2511671238119932e+00 1.7642051240994788e-01  1.1055889717677791e+00 1.8903691017303759e+00 1.8621984089004359e-01  -2.1916440348377081e-01 9.2475827525767607e-01 5.9886353129377334e-01  6.6533488470886870e-01 1.2386093300653700e+00 6.5964526695831216e-01  4.8337570094067112e-01 1.4330057030912429e+00 4.9609436928934303e-01  -2.0594000273600965e-01 4.3280567180611701e-01 9.6093173974324531e-01  -1.0037326640981437e+00 1.5186744835649169e+00 3.8438285101236325e-01  -9.0882432916987488e-01 2.2987930594245789e+00 2.8914440173404227e-01  -1.0086816136957433e+00 6.5076701672785808e-01 1.6219077249228314e-01  4.1290355575699073e-02 1.7276291423222545e+00 -9.6827580479889819e-02  5.8077058229989864e-01 4.3587956668084987e-01 8.4950436238526117e-01  2.4087072199620130e-01 4.1014035953361067e-01 9.6531039405030172e-01  1.0334704017880891e+00 2.6427855923859394e+00 1.7389744837991233e-01  7.0982377696108179e-01 2.2118542090302058e+00 2.7627262313595630e-01  -4.7428207719856685e-01 2.4103965205581694e+00 -1.1428088034584019e-01  -4.8006571439189472e-01 1.7676206764284879e+00 3.0127712615448249e-01  9.5257561383244438e-01 2.0695029659218651e+00 3.3972337646469364e-01  -5.3634831089326932e-03 1.1180945952668020e+00 3.6280747350610165e-01  3.1908241922260017e-01 2.0582481123433918e+00 -1.3404260042670865e-01  3.3407766981929504e-01 1.7890557162690808e+00 7.4279099851695785e-02  1.8800625487691215e-02 1.7941656492433389e-01 1.0094610583434298e+00  -6.8973658490386291e-01 2.5115584740014119e+00 1.1646149344410056e-01  1.7291521946058969e-01 1.5612926087909849e+00 7.7710878374580405e-02  3.0656904686072983e-01 2.3441399721992604e+00 -3.3675294522344901e-01  -3.1244995601543407e-01 5.6192135135967691e-01 9.1143412273740554e-01  -4.9170959962063765e-01 5.6714134147950390e-01 8.8796805280636848e-01  5.9993102445287508e-02 2.1913181373030834e+00 -4.4165720285168986e-01  -1.7576599174381899e-01 1.9384717707816896e+00 -1.9797931721711493e-01  -9.0438565667695781e-01 6.3656068962301648e-01 4.9829478688758777e-01  -9.7173864880874039e-01 8.6352452240586730e-01 3.6655382707796585e-01  -3.5179881012296638e-01 2.0948979735880089e+00 -1.1168298899384844e-01  -3.0016689086646459e-01 1.7976132330993504e+00 2.3024087335376923e-02  -1.0081394626276743e+00 2.8403715443061328e-01 1.4511108298319081e-01  7.8725419247966266e-01 1.3605434928809626e-01 6.4526381038852298e-01  -6.4378113685181582e-01 1.3906851371561577e-01 7.8908680743173332e-01  -1.1022997214577031e+00 1.7652431942865434e+00 1.6814353601311516e-01  1.0578428986320760e+00 1.3532963226888861e+00 1.7937615834148532e-01  -4.7442124901115473e-01 8.5794009496725820e-01 7.9552754061649722e-01  -5.9476072289280624e-01 7.3502836955941342e-01 8.2261088724277032e-01  6.7810110158829815e-03 1.4463277374232131e+00 1.1028950299625068e-01  -9.7352408600052087e-01 1.3967711385255277e-01 2.9522617976349452e-01  -5.2813969915871006e-01 2.6002791440875348e+00 -1.5460169408223451e-01  1.0178172940203740e+00 8.5187614515659660e-01 1.3651661103220944e-01  -1.7343946942100313e-01 1.6063151003088194e+00 4.4392620280151625e-02  6.9185459633432844e-01 6.3636666797845265e-01 7.7202066438807426e-01  -9.1101298957804888e-01 3.5629021936022676e-01 4.6256847406678031e-01  2.1460242488070333e-01 2.2080816433693724e+00 -3.5787287032747334e-01  7.8180895433311848e-01 1.5745133820515262e+00 5.3549493217982824e-01  4.4489871251807539e-01 1.1313469596625592e+00 6.3633116887148777e-01  -2.9616484255394548e-01 2.2488587125093376e+00 -2.9208672014310588e-01  7.1192525362941439e-01 1.9253315520607392e+00 4.0043316406228013e-01  9.6667623871778874e-01 1.7451779277305821e+00 4.0289131106373777e-01  -7.4795068339234827e-01 4.5724395207909763e-01 7.0875133406100232e-01  2.0574536212165651e-01 6.8693388914957498e-01 7.8813536752614965e-01  -5.1048718199289100e-01 2.0306756923775842e+00 1.8485916264162752e-01  -5.4918800314486793e-01 1.2128577833340783e+00 6.5150286339402719e-01  -7.1832289619112311e-01 1.0359195117950528e+00 7.0913991649141972e-01  -7.5237977877008355e-01 1.3427863866171594e+00 6.1518716619901537e-01  9.5437338092684099e-01 9.3930037816929635e-01 4.3222861579892374e-01  -9.9181107317783757e-01 1.1821192810543946e+00 3.8101073871504104e-01  8.9730666445569895e-01 1.2536072735117512e-01 4.7936317998683325e-01  9.1608582204059708e-01 3.8483555545549597e-01 4.5379505097858203e-01  -5.5674750945708384e-01 1.5247122738811516e+00 5.0612713392492881e-01  9.7929188002447320e-01 1.4485623881099168e+00 4.2554990624823896e-01 