<?xml version="1.0"?>
<VTKFile type="UnstructuredGrid"  version="0.1"  >
<UnstructuredGrid>
<Piece  NumberOfPoints="758" NumberOfCells="1386">
<Points>
<DataArray  type="Float64"  NumberOfComponents="3"  format="ascii">-1.570796326794897 3.048 0  -1.570796326794897 0 0  1.570796326794897 0 0  1.570796326794897 3.048 0  0 0 0  0 3.048 0  -1.570796326794897 1.524 0  1.570796326794897 1.524 0  -0.04609926118424437 1.524 0  0.7853981633974483 0 0  0.7623485328053261 2.262242601661362 0  -0.7853981633974483 0 0  -0.7853981633974483 3.048 0  0.392699081698724 0.7745759241961347 0  -1.570796326794897 0.762 0  -0.8084477939895706 2.0955 0  -0.68277245543452 0.8915343570675713 0  0.7853981633974483 3.048 0  0.778743707341909 1.468410948960538 0  2.780093748954961e-16 2.285302774973185 0  -1.570796326794897 2.286 0  1.570796326794897 0.762 0  1.570796326794897 2.286 0  -0.9375370967763674 1.47348297960658 0  0.9831575747762593 0.9003629142671278 0  -0.3926990816987241 0.4064697549061488 0  1.177419588818055 1.905 0  0.3692901340097942 1.880893989147954 0  -0.4920225169641509 2.564371687128368 0  0.3926990816987241 3.048 0  1.178097245096172 0 0  1.155705348811136 2.643920532523289 0  -1.178097245096172 3.048 0  -1.178097245096172 0 0  -0.1391296372266528 0.8873724190154949 0  -1.10527745318919 2.528282743051346 0  -0.9817477042468103 0.4742759268549471 0  -0.3416666987802651 1.923944646262223 0  -1.570796326794897 1.905 0  -1.156555306160469 1.030861936336814 0  0.7648449098493205 0.4764142032227 0  0.3926990816987241 0 0  -0.4820376416180818 1.326151321396512 0  0.06374421723344185 0.4545169930886408 0  0.1972735722393064 1.163324878565267 0  0.3900417218314142 2.566922767651637 0  1.570796326794897 0.381 0  1.188877612935585 1.295195418509834 0  1.179914028402171 0.5308585702661928 0  0.7660075594126428 1.865233039449035 0  0.6330293131838399 1.095171663968746 0  -1.201232463242587 2.144287146570887 0  -0.3926990816987241 0 0  -0.3926990816987241 3.048 0  1.178097245096172 3.048 0  0.7684409382397209 2.649499271873753 0  -1.236954997304436 1.7145 0  -0.1088573452899617 2.666651387486592 0  -1.570796326794897 1.143 0  -1.570796326794897 0.381 0  1.570796326794897 1.143 0  1.570796326794897 1.905 0  1.570796326794897 2.667 0  -1.570796326794897 2.667 0  -0.6730839067294777 1.743003792473746 0  1.199831389396789 2.275437921225198 0  0.3936837537618041 1.495643752599615 0  0.01539369169800942 1.928544709491661 0  0.4156551272669651 0.4219033286010089 0  0.3401546043708642 2.225103550856524 0  -0.3379897306391274 2.262671266279809 0  -1.23624174049596 0.7000907110925838 0  -1.265224057170889 1.360131453617764 0  -0.1224339018241312 1.210043725539656 0  1.289286200625578 0.9918698881707442 0  -0.7751142346211329 1.197848666814478 0  1.003546186550495 0.2660297686099683 0  0.1963495408493621 2.808538634159524 0  -0.8079023568959116 2.703551618159924 0  -0.3480226984353056 1.610059855391589 0  1.075147893506229 1.598068412087719 0  -0.8290627893979112 2.399544545867518 0  0.6965048925255637 0.7972100472372819 0  -1.257765094876752 0.3107645483825858 0  -0.6724835324263325 0.5684215760013651 0  -0.3995059642389676 0.7173610149075536 0  0.9136951972244611 1.187564504803626 0  -0.964259350608907 0.8095514380783081 0  -0.7565990314517038 0.2897049735129544 0  -0.9603859887840651 1.834914433810327 0  -0.1457055965762301 0.2521630699436873 0  0.1963495408493621 0.2041911848053476 0  0.6241974196550791 0.231695999252114 0  -0.4098815011312292 1.029160072548571 0  0.9592800715482012 2.452820690856482 0  0.9648684169153161 2.840751931000357 0  0.5890486225480862 3.048 0  0.164631037784102 1.698913854044779 0  0.5664480837073581 2.070920238540226 0  1.374107957806476 1.7145 0  0.9861079629544779 2.102471438422718 0  -1.374446785945534 3.048 0  -1.288827800789186 2.762781313597598 0  1.353232957571468 2.835634774483438 0  1.302158670506274 0.2650078124691045 0  0.1394669809465775 0.8907702620243092 0  -0.5631487221059602 2.830992231257464 0  1.372837635547072 2.483038902756259 0  -0.1493395228831287 0.618617259260858 0  -1.32327048447753 2.378769394323546 0  0.56080204725298 1.699622905297025 0  1.570796326794897 2.0955 0  0.5403456747786348 2.786446773498672 0  -0.9817477042468103 0 0  -0.5847039960246873 2.326882432521036 0  0.1225428891326576 2.526494255738436 0  -0.9817477042468103 3.048 0  -0.5522901559753841 2.071668786267058 0  -1.370864794258017 0.9075071715671403 0  -1.043891045637083 1.250611220450313 0  -0.1652643923634778 2.09141301924679 0  -1.044446740946883 2.764982067459552 0  -0.1610370079820225 1.763280243096074 0  -0.3136912237752232 2.810498886211121 0  0.5400974078002052 2.370472734822523 0  -0.7009161718414544 1.427243880175582 0  0.902907438200502 0.6735032943420574 0  -0.9879196222361604 0.2371379634274736 0  1.319268546233604 0.7412771512308228 0  0.5578373583610097 0.608241627784878 0  0.5756483102040615 1.332636919938113 0  -0.5281701577409 0.2032348774530744 0  -0.266729509930448 2.489223923247521 0  -1.570796326794897 0.5715 0  -0.2430656531629531 1.405631921096758 0  0.253622337931223 0.5884397663452474 0  1.284044721043478 1.50372037617638 0  1.570796326794897 1.3335 0  -0.9904333867980613 2.235882060371517 0  0.9871146764618406 1.395690276854986 0  -1.374446785945534 0 0  0.3981951765262902 1.020833864419675 0  0.1670583512016766 1.405384478716078 0  -1.330327693484763 1.938638984813805 0  0.2106653067452682 2.040805097078886 0  1.570796326794897 0.5715 0  1.334822181490566 2.081373939821734 0  -0.9303227889097604 1.033236710715967 0  -1.34639228476592 1.150776798768373 0  -1.570796326794897 0.1905 0  1.106697207481837 1.099709897393925 0  0.4137866939027022 0.2104288000383385 0  -1.570796326794897 2.0955 0  0.9761377489246634 0.4754251272674608 0  1.377108465632662 0.4605024587280874 0  1.108114944719677 0.7297638044096917 0  0.3695908229138113 1.285681859811955 0  0.9799112840676307 1.800306505551499 0  -0.001696842075803034 1.042028929293442 0  1.366537356420357 1.185723700290463 0  -1.385029840108318 0.47625 0  0.05842649915411911 0.6874537157920781 0  -1.183268988745763 0.4997334438341218 0  -0.6073502281622543 1.081347079085406 0  -1.026941765261019 2.031536576622642 0  -1.570796326794897 2.8575 0  0.8159726599830506 1.011928543199529 0  0.7652782693277244 2.849245002237192 0  -0.5252326280373281 1.520125074885265 0  0.7648326174724897 2.063743853392348 0  0.757099741434616 1.666331708950521 0  -0.1963495408493621 3.048 0  -0.005410422648647092 2.843333256403111 0  -1.395368347654653 2.19075 0  1.374446785945534 0 0  0.9817477042468103 3.048 0  0.1963495408493621 0 0  -0.1963495408493621 0 0  0.5890486225480862 0 0  0.1963495408493621 3.048 0  0.9817477042468103 0 0  1.374446785945534 3.048 0  -0.5890486225480862 3.048 0  -0.5890486225480862 0 0  -0.06865319188571758 2.471928549109083 0  1.159049337209348 2.838090892449816 0  0.5817075150535711 2.596909954318943 0  0.7656515661107315 2.455866896253367 0  0.9620790410056582 2.647119292933887 0  0.3676829480103987 1.68739481709134 0  -0.8886101495223063 2.878912500124773 0  -0.3317793704126089 0.1873756770788371 0  -1.383208664444332 2.577695923010364 0  -1.043597917648523 1.648216005744782 0  -1.362178343413552 1.546177620526679 0  -1.570796326794897 1.7145 0  -0.8462722504471433 1.648434957877788 0  -0.588076822054871 0.3899352838051667 0  1.570796326794897 2.8575 0  -1.570796326794897 0.9525 0  1.570796326794897 0.1905 0  1.570796326794897 1.7145 0  1.570796326794897 0.9525 0  -1.570796326794897 1.3335 0  1.570796326794897 2.4765 0  -1.570796326794897 2.4765 0  0.8103777117362174 0.287468585434799 0  -1.145334531235929 1.881885620422454 0  -0.8620560674467429 0.6361265362229395 0  -0.321688879263093 1.207848147265888 0  -0.7798551871678058 1.904240998338365 0  -0.4724954359209014 1.769587110195458 0  -0.667402576232105 2.495985359319255 0  0.5365063314111709 0.8945566719544227 0  0.1855702280441107 2.342745654422604 0  0.55510120733165 1.88540118775351 0  1.188295809121239 2.460939894898248 0  1.38587897409014 2.260870763688798 0  1.383978812419919 1.901097375082534 0  -0.2265735189171196 1.049795314962436 0  0.7387890113368257 1.246392780742437 0  0.5763234466275948 1.516457524623135 0  -0.203279258075353 0.4348372558382012 0  -1.179202350299698 1.523245956950107 0  -1.151844216720993 2.318990544544152 0  -1.410806081599612 0.6547540757597369 0  0.04190096621848406 2.108399609871347 0  0.5925649981629265 0.4343292987553075 0  0.2371113691258682 0.4102816185532077 0  1.334103818253725 2.657728219912091 0  0.9405077369493808 2.275181409651143 0  -0.633962040105568 2.669303984283053 0  -0.6045614816381242 1.904349918307267 0  1.159697673803787 2.079238591118184 0  -0.004643801590645341 1.347662554528907 0  0.3691400131247499 2.395423267764724 0  0.3855005143298051 2.055603978165229 0  0.01839821075864462 0.1788084577298442 0  -0.9568120219060965 2.61629404172056 0  0.1783135820912846 1.871116340262054 0  0.3649950158263953 2.745288921627024 0  -0.3142054567155264 0.5671999812317062 0  -0.4933549623779417 0.564740705097546 0  0.06092775470575962 2.685867440722903 0  -0.1801827362748675 2.337517890002858 0  -1.063355415037434 0.6386189748554 0  -1.205242865599393 0.8676070232612285 0  -0.4176020549597784 2.412196127179313 0  -0.3347051678178828 2.093252344225509 0  -1.427772711006951 0.2857500000000001 0  0.8835729338221293 0.1362887052191026 0  -0.6831011505337878 0.1389086130988801 0  -1.403875662049666 1.77648180985222 0  1.394165436236593 1.362588987767805 0  -0.5007942298153729 0.8700626692351643 0  -0.6093220848169366 0.7321530406295067 0  0.007534593095922887 1.760126887057542 0  -1.276272015520854 0.140425968067263 0  -0.7270478511000733 2.847016806985676 0  1.436331331726002 0.85725 0  -0.1770320080670663 1.927167796173981 0  0.7200726153501196 0.6345534912379586 0  -1.099983122078282 0.3577316115390257 0  0.2324759135153202 2.648405702327079 0  0.9054371869972004 1.582409569434113 0  0.5000672234640285 1.188708149930449 0  -0.340793734207542
[...]
<PointData  Vectors="phi"> 
<DataArray  type="Float64"  Name="phi"  NumberOfComponents="3" format="ascii">-1.2700395782348513e+00 3.0172616426805861e+00 2.5322411438991423e-04  -1.0160124178557706e+00 3.9890287709281730e-08 -9.1734183312507233e-06  1.0160124575325460e+00 1.3982139905094244e-08 -1.0985939142117223e-05  1.2701591299047317e+00 3.0172278590189792e+00 1.9977274988551097e-04  -5.8107477511962061e-06 2.5243243498141026e-07 1.0160219296447677e+00  -6.1989976408870695e-04 2.5784531603214971e+00 -3.5673723126927098e-01  -1.0609776298980611e+00 1.5092185756400125e+00 -1.6959083069828717e-05  1.0611852676482390e+00 1.5091750795986238e+00 -2.4992792141203788e-05  -4.6857638934425128e-02 1.4076921020367850e+00 6.2279571586907023e-01  7.1842701225449335e-01 -1.9886947167107715e-07 7.1841668266699477e-01  6.5543579906390892e-01 2.2146672936363858e+00 4.5159533592006817e-01  -7.1842427833162714e-01 -2.6154466676476941e-07 7.1841878190075981e-01  -6.2240671220733812e-01 2.8813693839637389e+00 3.7487405020276268e-02  3.9512256475366947e-01 7.7941376612912239e-01 9.1837233081440461e-01  -1.0239846461415125e+00 7.5504480931650730e-01 -2.1549120246414967e-05  -7.2019064555820367e-01 2.0763190196612196e+00 5.3456269335323769e-01  -6.6146063976581115e-01 8.9335619396470334e-01 7.8803007599054065e-01  6.2203285633460281e-01 2.8808611034321570e+00 3.6071831540164134e-02  7.5141881194924209e-01 1.4716728234019578e+00 7.0728496817195086e-01  -4.4723771229361359e-04 1.9967813584986860e+00 1.3860686426032817e-01  -1.1771586857516427e+00 2.2588141086324605e+00 2.4810660374036139e-06  1.0240058485970074e+00 7.5503179651579655e-01 -3.0580520794485935e-05  1.1775902518366255e+00 2.2587298998683338e+00 -5.6392053317247655e-05  -8.7422447219976207e-01 1.4715961332583241e+00 6.0367417650539901e-01  8.7130741459708583e-01 8.9666339670677808e-01 5.6885760334252622e-01  -3.9138304034941906e-01 4.0921438607947275e-01 9.3007181423807173e-01  1.0341445947013075e+00 1.8931306342697942e+00 3.8860135343816377e-01  3.4225639105537337e-01 1.7645945449382381e+00 4.9637473299710921e-01  -4.2361183026779131e-01 2.3619757708078035e+00 1.5319302145547162e-01  3.4148857585206982e-01 2.7072449717608063e+00 -1.9152547421167335e-01  9.3865706293656970e-01 -4.4926377729990914e-07 3.8880524582452275e-01  9.9537325411386512e-01 2.6246172298740147e+00 3.1529645989015470e-01  -9.6719719455626352e-01 3.0070396076298578e+00 1.8827056828840336e-01  -9.3865695268833393e-01 -2.4554114384963432e-07 3.8881446832523092e-01  -1.4233367336853414e-01 8.9273018046007202e-01 9.5952795245875278e-01  -9.6048674947407275e-01 2.5116123949751756e+00 3.5984076602738901e-01  -8.5565729289187431e-01 4.7183439511497638e-01 5.6807154254587611e-01  -3.1920879648703482e-01 1.7887526216541825e+00 4.5804783711313402e-01  -1.1138969193573884e+00 1.8839351466960925e+00 -2.4241535406192150e-05  -9.5747825549587362e-01 1.0240085298124579e+00 4.1268678248159690e-01  7.1431595860138952e-01 4.7590422261035326e-01 7.3651631818375562e-01  3.8881366795962158e-01 9.3287799186249076e-07 9.3866790251540888e-01  -4.7504658566314112e-01 1.3271404846353965e+00 8.2398806544247605e-01  6.4614532095133612e-02 4.5882408009003628e-01 9.8813448352027056e-01  1.9751999286832281e-01 1.1557927946484459e+00 8.8129589250058460e-01  3.4817397467742517e-01 2.3201024933877301e+00 9.4116708952790049e-02  1.0201470310507039e+00 3.7757246713690434e-01 -1.9574546171202709e-05  9.8456859420398790e-01 1.2862447662368288e+00 3.8243123871780327e-01  9.4904791289005686e-01 5.2689349270217478e-01 3.8925294115696468e-01  7.0596853335034493e-01 1.8578509246654622e+00 6.1936737707831524e-01  6.2482723152324715e-01 1.0991858984872720e+00 8.1178830423030546e-01  -1.0580463666902986e+00 2.1308395311344310e+00 3.5781049125584019e-01  -3.8880190751386523e-01 -2.8111077533376863e-07 9.3865665215806271e-01  -3.4239866587564866e-01 2.7076153701883148e+00 -1.9065976208523241e-01  9.6677133068671428e-01 3.0067308644944193e+00 1.8711627896233582e-01  6.2843814083340643e-01 2.5453950993772825e+00 2.5164633674669729e-01  -1.0392260772128139e+00 1.7012767696094837e+00 3.3571941322342652e-01  -1.0936617821239346e-01 2.3060109684380032e+00 -8.5568285532881302e-02  -1.0352287015260035e+00 1.1324050956368508e+00 -2.4690229050155357e-05  -1.0201573541154068e+00 3.7757852390937341e-01 -2.4485617429973478e-05  1.0352898628933664e+00 1.1323821502146041e+00 -1.1993724355234501e-05  1.1143263404243104e+00 1.8838433747742471e+00 -4.7939012969564153e-05  1.2323607368135721e+00 2.6367845866473640e+00 -5.4000376499337245e-05  -1.2317212995857598e+00 2.6368927108996143e+00 1.1671905229234810e-05  -6.2715394253871126e-01 1.7335698201626859e+00 6.6682252361209815e-01  1.0583203487565898e+00 2.2618407039468522e+00 3.4959053368791176e-01  3.7638470885924474e-01 1.4623137879180446e+00 7.3208558076327546e-01  1.5247428312813702e-02 1.7175105136598652e+00 3.6147899041313680e-01  4.1335822554278018e-01 4.2458714630170563e-01 9.2161483093088847e-01  3.1413485055236146e-01 2.0268604722199872e+00 2.7389574578822273e-01  -3.1285049119743813e-01 2.0559431721490697e+00 2.5043459450908839e-01  -9.7223542766710225e-01 6.9462724121826458e-01 3.3557273264234938e-01  -1.0114024371351271e+00 1.3494393371208446e+00 3.0812058576132328e-01  -1.2241842561365683e-01 1.1866035846831320e+00 8.4637090973963502e-01  9.9653614034707449e-01 9.8381727771959615e-01 2.8396594287517557e-01  -7.4609785632352987e-01 1.1994414749755133e+00 7.2667738320800335e-01  8.6206529407608168e-01 2.6449054590745041e-01 5.4789067650684287e-01  1.8793005578433722e-01 2.4408181772976367e+00 -1.4442499669652073e-01  -6.5799442641327865e-01 2.6052035217399721e+00 2.4139209633011269e-01  -3.3076869248132645e-01 1.5420722505339133e+00 6.5040919578063083e-01  9.6264043325306026e-01 1.5910709415200404e+00 4.8718548868424560e-01  -7.0374790066409743e-01 2.3521324776270744e+00 4.0518368941882255e-01  6.6998285856737527e-01 7.9837698252565070e-01 7.8046946072548296e-01  -9.7149997695794965e-01 3.0823940309165387e-01 3.1395866063173417e-01  -6.4458304153580270e-01 5.6912231637353972e-01 7.9642968804849568e-01  -4.0101958957312966e-01 7.2184349904531631e-01 9.1816469894778363e-01  8.4412676350314286e-01 1.1853763884991708e+00 6.2641881713414216e-01  -8.5700735038980169e-01 8.0630594331968430e-01 5.8456810885771415e-01  -7.0312848040138232e-01 2.8929616856266444e-01 7.4106559893271950e-01  -8.9143298204337429e-01 1.8332238840215314e+00 5.5988988722999267e-01  -1.4736381170410146e-01 2.5476072557711793e-01 9.9333745781126703e-01  1.9812907072718064e-01 2.0625423620377314e-01 9.8829731597932113e-01  5.9722666966491256e-01 2.3204760567184846e-01 8.2511379250666161e-01  -4.1471770681490150e-01 1.0349268496435313e+00 9.0169066670649689e-01  8.2428669269470889e-01 2.4264529330659519e+00 4.0111232214176495e-01  7.8453430533301283e-01 2.7720418618042721e+00 2.2967519849564694e-01  4.8117413452385849e-01 2.7946194278166523e+00 -7.7146776176354695e-02  1.6295698765306305e-01 1.5589235876304757e+00 5.3066896840840749e-01  4.9771856116096985e-01 1.9907333067245296e+00 4.7769577698046262e-01  1.0707255296839988e+00 1.6981356534011585e+00 1.9969861561642130e-01  8.9401224653064226e-01 2.0968944091011510e+00 5.0078742354548744e-01  -1.1633884011243367e+00 3.0225883709303956e+00 1.5781277460802276e-01  -1.1071596756164492e+00 2.7416300409201395e+00 2.3772117765448877e-01  1.1560006606888862e+00 2.8120421222048728e+00 1.9073463933959620e-01  9.8355098102194471e-01 2.6279794695533365e-01 2.7048725495451598e-01  1.4255972029879424e-01 8.9609771209687417e-01 9.5908976373367871e-01  -4.6704751650089066e-01 2.6091173113432315e+00 3.7664532001744418e-02  1.1632812992534738e+00 2.4593879812327404e+00 1.9425954461906247e-01  -1.5157555670615883e-01 6.2369709498942549e-01 9.7253977716033213e-01  -1.1332436726245707e+00 2.3579253884139733e+00 2.4196946663671354e-01  5.2052573931651458e-01 1.6747089136931963e+00 6.7036400090126724e-01  1.1462127781302478e+00 2.0710026324599315e+00 -2.0221787683743431e-05  4.5133416874450921e-01 2.5627189073009755e+00 4.9731086956407593e-02  -8.4477563110708576e-01 8.3658938478569756e-09 5.6446294271635267e-01  -4.9982722401730317e-01 2.2083772700288851e+00 3.4275196637328520e-01  1.2170418545601808e-01 2.1983068536264256e+00 4.2412414395890819e-03  -7.8093058117897329e-01 2.9563547882538899e+00 1.3438014363603079e-01  -4.8629705981137322e-01 1.9864138484568692e+00 4.7153817963441813e-01  -1.0103998969358445e+00 8.9964601346286255e-01 2.0263866159889923e-01  -9.2163600673200308e-01 1.2450251992264130e+00 5.1690159136357139e-01  -1.6368461646112592e-01 1.8651021671328096e+00 2.8497681432755073e-01  -8.6934986168988559e-01 2.7247135315346909e+00 2.8407496241950753e-01  -1.5997228200162997e-01 1.6079181187624860e+00 4.8909651577928570e-01  -2.8545062248998898e-01 2.4853830078301486e+00 -9.0289183270005846e-02  4.6355138736230500e-01 2.2255438311210289e+00 2.9319521458076980e-01  -6.8302709319213717e-01 1.4316767754160908e+00 7.4942765003338263e-01  8.1534923770704859e-01 6.7130998873548109e-01 6.3431882432691034e-01  -8.5271927384083446e-01 2.3581361360722192e-01 5.6099189681793382e-01  9.9544469550999237e-01 7.3505224201623098e-01 2.5406962156298540e-01  5.4718218102356186e-01 6.1053920209489010e-01 8.5817947449886423e-01  5.6793850297167270e-01 1.3372946776680306e+00 8.0769353652459530e-01  -5.1415194496810734e-01 2.0400061321673799e-01 8.7692238004312351e-01  -2.5294479379121926e-01 2.2097240241714466e+00 7.9076852102815412e-02  -1.0212066139680547e+00 5.6631940442944484e-01 -1.5489441211647584e-05  -2.3841374941938911e-01 1.3537649814060773e+00 7.4181318393731588e-01  2.5622001011954115e-01 5.9308802386797321e-01 9.5889226011506357e-01  1.0289804685114037e+00 1.4913717196152805e+00 2.8969313123993296e-01  1.0451037727534900e+00 1.3209522451800566e+00 -1.4849876759547621e-05  -8.8377011042727494e-01 2.2261277985529002e+00 4.6825256974588425e-01  9.0110393646825093e-01 1.3917362125819341e+00 5.6550191576239228e-01  -9.9647430434244155e-01 -6.8482854105099972e-07 1.9820649215039329e-01  4.0313638100259030e-01 1.0266157138460943e+00 9.0521491077817373e-01  1.6580812229951217e-01 1.3367388354665171e+00 7.2190090543990304e-01  -1.0920686820052703e+00 1.9203767877175451e+00 2.4295359592551144e-01  2.0486426418733059e-01 1.8373287533631963e+00 3.3117309855179244e-01  1.0212144172031936e+00 5.6630858477468804e-01 -2.7403262506914801e-05  1.1113420661576172e+00 2.0615076644889250e+00 2.3730658699795379e-01  -8.4645218803794731e-01 1.0304410425719599e+00 6.1313375930839276e-01  -1.0155719876288756e+00 1.1409676567578584e+00 2.2722620189648293e-01  -1.0185647283829629e+00 1.8883449663689014e-01 -3.3240133586877678e-05  9.4127693875110763e-01 1.0932869468451607e+00 4.5952805967155491e-01  4.0972362112365757e-01 2.1178879671599155e-01 9.2718514274982577e-01  -1.1455768769167181e+00 2.0711175022689847e+00 -3.1229358555888223e-05  8.5258418764040977e-01 4.7301845936185438e-01 5.7285370389107437e-01  1.0025627599243268e+00 4.5649143835239453e-01 1.9623344715264424e-01  9.2610182555017129e-01 7.2507203415798893e-01 4.5712852170370483e-01  3.6449806517630956e-01 1.2796999607482129e+00 8.3707979702681001e-01  9.0797806582649365e-01 1.7979695100898467e+00 5.5133771530767783e-01  -1.7832197327552358e-03 1.0423080985796709e+00 9.3183857535488379e-01  1.0208690707214398e+00 1.1754296425959168e+00 2.0703638080463990e-01  -1.0041402365811263e+00 4.7209617970976248e-01 1.8828553720640578e-01  5.9457195096553846e-02 6.9284876444388377e-01 9.7542491357272976e-01  -9.4957781122518403e-01 4.9597710491909308e-01 3.8597529650439988e-01  -6.0180612418654389e-01 1.0856791025358759e+00 8.2521407003582536e-01  -9.3598400275467752e-01 2.0266174208101861e+00 4.9356160978635782e-01  -1.2523711955113606e+00 2.8271025360086410e+00 8.5721342782924930e-05  7.6919024089437782e-01 1.0116240844882081e+00 7.0045852013118814e-01  6.1518362281005634e-01 2.7094150235691532e+00 1.3824321991585803e-01  -5.0216202034288959e-01 1.5097613125308256e+00 7.4806737637413268e-01  6.8037997025768504e-01 2.0398044934069279e+00 5.4279766238374971e-01  7.1895556133366001e-01 1.6675201196974792e+00 6.8021964276433533e-01  -1.8769967692319453e-01 2.6283122485779620e+00 -2.9303122195105130e-01  -6.0834366403783010e-03 2.4328871438791437e+00 -2.0985194686452283e-01  -1.1409352068101650e+00 2.1677913025465516e+00 1.7697012989813440e-01  9.9647574318057430e-01 -6.8821801748087337e-07 1.9820944775893196e-01  7.8055517552093279e-01 2.9559192960408018e+00 1.3286606342341947e-01  1.9820785999134091e-01 1.5826543800362401e-06 9.9649238580657318e-01  -1.9821649253963908e-01 4.4523510792174667e-07 9.9648276104285605e-01  5.6445637135110949e-01 1.6018860161913787e-07 8.4477755177712721e-01  1.8651885925966513e-01 2.6280781825497419e+00 -2.9362270318651357e-01  8.4477861221305994e-01 -1.7191667521094477e-07 5.6446236696791463e-01  1.1631373593133041e+00 3.0226835048433682e+00 1.5733842934168862e-01  -4.8180961808339140e-01 2.7950268091595958e+00 -7.6048303262326464e-02  -5.6446392686772284e-01 -1.5275395980602176e-07 8.4477138145234676e-01  -6.9806714098157155e-02 2.1471453907049405e+00 2.7753649329551679e-02  9.7435315410734236e-01 2.8087311370693264e+00 2.5834357740220260e-01  4.8692534894595224e-01 2.4269371514428206e+00 1.8404677550351578e-01  6.4023712115005627e-01 2.3817598646864333e+00 3.5471130867596506e-01  8.0255782008996368e-01 2.6020362219700162e+00 3.2063682732947674e-01  3.4554211116944811e-01 1.6098601655521847e+00 6.1148710155310959e-01  -7.1422132308485708e-01 2.7806956375151466e+00 1.8219888375458446e-01  -3.3141802512148133e-01 1.8889601309756474e-01 9.5624193842193794e-01  -1.1736330536374326e+00 2.5534090610611933e+00 1.8251266645968239e-01  -9.4835430500392581e-01 1.6426075085840899e+00 5.1303012369328915e-01  -1.0481043350798940e+00 1.5322626224458182e+00 2.1164902318635842e-01  -1.0845993012182080e+00 1.6968222023310655e+00 -3.2847796239154762e-05  -8.0345906231907527e-01 1.6502230530048283e+00 6.4890296567258232e-01  -5.6974903756904727e-01 3.9098360607012822e-01 8.4519126787087628e-01  1.2531369360904077e+00 2.8269669756546731e+00 -8.4247279214124652e-06  -1.0286890274471754e+00 9.4374029591110520e-01 -1.7192599056165748e-05  1.0185515996730807e+00 1.8883195272196585e-01 -2.9241806678382987e-05  1.0849605052804823e+00 1.6967522039343577e+00 -1.7615368918621295e-05  1.0287297650605176e+00 9.4372232403902079e-01 -4.8557565769923149e-05  -1.0450033436634505e+00 1.3209800429523668e+00 -3.1789824466536685e-05  1.2068509436802408e+00 2.4473152069918238e+00 -2.4672600908453564e-05  -1.2062662281159979e+00 2.4474173668849111e+00 1.3259767907139328e-05  7.4200621878565653e-01 2.8674246497459077e-01 7.0269509939075747e-01  -1.0165058075954936e+00 1.8716940938300386e+00 4.1785890441189910e-01  -7.8764722889562166e-01 6.3448137502305391e-01 6.6614784207845990e-01  -3.2083444105374448e-01 1.2053450944427848e+00 8.6896922848281855e-01  -7.1553232412225187e-01 1.8958651713698351e+00 6.0571866563164134e-01  -4.3431046146479702e-01 1.7102529428886246e+00 6.0651751629308204e-01  -5.5631672040002345e-01 2.3800509145920214e+00 2.8905998414742573e-01  5.3344516116313101e-01 8.9868700602928031e-01 8.6278324791979122e-01  1.8145130663567260e-01 2.0681073272137613e+00 1.3595343789791395e-01  5.0004737768080210e-01 1.8321894448099896e+00 5.7415402537640925e-01  1.0424357057872442e+00 2.4463396099055092e+00 3.3642108451571695e-01  1.1474056991488777e+00 2.2376000642518474e+00 1.8560184074991817e-01  1.0985381598557751e+00 1.8818612606811413e+00 1.8960745673791327e-01  -2.3023191329613107e-01 1.0533179651756222e+00 9.2635758849007788e-01  7.1821368121728391e-01 1.2493177665139086e+00 7.4747034419761371e-01  5.5344040063659083e-01 1.5128254036712556e+00 7.5159202969569316e-01  -2.0536246052389598e-01 4.3873975361806261e-01 9.7523704285322410e-01  -1.0005341268643109e+00 1.5130533127310515e+00 3.9197011407970184e-01  -1.0214588044616952e+00 2.3072119040475561e+00 3.7838009830030001e-01  -1.0105731986501454e+00 6.4897788692477254e-01 1.6237771397509104e-01  4.1963682253437704e-02 1.8592256250387753e+00 2.5022115553500079e-01  5.7450173396648907e-01 4.3549839255922929e-01 8.4250704135100452e-01  2.3908176798009326e-01 4.1389819401914063e-01 9.7052063885733819e-01  1.1466120759200349e+00 2.6356792986215787e+00 2.1887991236251481e-01  8.2896585509526433e-01 2.2596918839645737e+00 4.6550121485082707e-01  -5.2327040538138692e-01 2.5084213790098708e+00 1.7212072954527566e-01  -5.4393077574093929e-01 1.8626310068365768e+00 5.8174625354469867e-01  1.0317763961321538e+00 2.0680795519937569e+00 3.9549955905783352e-01  -4.8514102946548522e-03 1.2773587027711906e+00 7.4153083221227234e-01  3.3503789609811990e-01 2.1739811448985011e+00 1.8562671183981844e-01  3.5225055748814182e-01 1.9098056924887554e+00 3.9905520178777593e-01  1.8651879214628082e-02 1.8082281523944913e-01 1.0069389813282379e+00  -8.0136919625445580e-01 2.5737432975010344e+00 3.3454485490043057e-01  1.7544995224049137e-01 1.6958618777412253e+00 4.2610365766424713e-01  3.2545591754311709e-01 2.4533623472213177e+00 -2.5309000796343680e-02  -3.1624395808508743e-01 5.7143850544657426e-01 9.4697059780090143e-01  -4.8793984839203070e-01 5.6752107882722558e-01 8.8809640724248096e-01  6.0944256445962144e-02 2.3137220612659277e+00 -1.0664141046444399e-01  -1.7737970434619155e-01 2.0626366601818287e+00 1.3763093329599393e-01  -9.0281240256026374e-01 6.3479298297529196e-01 4.9750957627078013e-01  -9.6773272512423714e-01 8.6120095657992091e-01 3.6586438491579198e-01  -3.7230300814215722e-01 2.2075741363107788e+00 2.0198556302100973e-01  -3.1160170190437825e-01 1.9203094947536981e+00 3.5188776502126728e-01  -1.0094542646331797e+00 2.8325113829065401e-01 1.4525547706889580e-01  7.8740440804532041e-01 1.3573604711171153e-01 6.4539437459347437e-01  -6.4313625122080331e-01 1.3890102234115204e-01 7.8861003706283317e-01  -1.0831953596437254e+00 1.7588316305628402e+00 1.6970693030906819e-01  1.0358805187646136e+00 1.3503881835116913e+00 1.7925116854640510e-01  -4.9989863390887773e-01 8.7445229391579360e-01 8.7836727901759803e-01  -5.9500703922282050e-01 7.3435986247653717e-01 8.3059781108140829e-01  7.3399116805643967e-03 1.5865886601607151e+00 4.6801954044129401e-01  -9.7412426632650717e-01 1.3929652205504514e-01 2.9536234034572734e-01  -5.8628467423141362e-01 2.6924561114217700e+00 1.2052129591930133e-01  1.0183963440411203e+00 8.4957415707601203e-01 1.3665279637423297e-01  -1.7482851952561743e-01 1.7393369500135385e+00 3.9085770786806939e-01  6.8441560572597182e-01 6.3481830596038713e-01 7.6654972020780154e-01  -9.1232787005673266e-01 3.5528119931552099e-01 4.6300328834910809e-01  2.2145614971593661e-01 2.3246843573888532e+00 -3.2784892312042957e-02  8.5361571605019526e-01 1.5823471345833875e+00 6.2078801033081976e-01  5.0051068742025839e-01 1.1942440886508860e+00 8.5595292242778409e-01  -3.1033446478995630e-01 2.3606413457335864e+00 2.3279230707609479e-02  8.2309839655013572e-01 1.9617861470365809e+00 5.6484211166172527e-01  1.0022972985715244e+00 1.7395705452006098e+00 4.3219597641781105e-01  -7.4476894931223403e-01 4.5620421963274765e-01 7.0604721863589881e-01  2.1359691781209225e-01 7.5018653984268902e-01 9.5916783895672453e-01  -5.7976052339317918e-01 2.1226897553775550e+00 4.5977316427185633e-01  -6.1387333315924719e-01 1.2474337335532157e+00 8.0807940644159093e-01  -7.3260994239529664e-01 1.0344624169486822e+00 7.3498114111132429e-01  -8.0034092048134575e-01 1.3461824350227407e+00 6.7908352881867551e-01  9.4616781404968731e-01 9.3672332466965924e-01 4.3071868243480305e-01  -9.7784264851458136e-01 1.1788290724296973e+00 3.8049834034391339e-01  8.9772934684010586e-01 1.2502666118887049e-01 4.7953872485109905e-01  9.1737508109206300e-01 3.8374582074639996e-01 4.5419434350630161e-01  -6.4245081620188027e-01 1.5840951573468107e+00 7.2194697286084331e-01  9.7766676916776662e-01 1.4431491658339959e+00 4.3399192297925560e-01  -8.8234317637775539e-01 2.38076