<?xml version="1.0"?>
<VTKFile type="UnstructuredGrid"  version="0.1"  >
<UnstructuredGrid>
<Piece  NumberOfPoints="758" NumberOfCells="1386">
<Points>
<DataArray  type="Float64"  NumberOfComponents="3"  format="ascii">-1.570796326794897 3.048 0  -1.570796326794897 0 0  1.570796326794897 0 0  1.570796326794897 3.048 0  0 0 0  0 3.048 0  -1.570796326794897 1.524 0  1.570796326794897 1.524 0  -0.04609926118424437 1.524 0  0.7853981633974483 0 0  0.7623485328053261 2.262242601661362 0  -0.7853981633974483 0 0  -0.7853981633974483 3.048 0  0.392699081698724 0.7745759241961347 0  -1.570796326794897 0.762 0  -0.8084477939895706 2.0955 0  -0.68277245543452 0.8915343570675713 0  0.7853981633974483 3.048 0  0.778743707341909 1.468410948960538 0  2.780093748954961e-16 2.285302774973185 0  -1.570796326794897 2.286 0  1.570796326794897 0.762 0  1.570796326794897 2.286 0  -0.9375370967763674 1.47348297960658 0  0.9831575747762593 0.9003629142671278 0  -0.3926990816987241 0.4064697549061488 0  1.177419588818055 1.905 0  0.3692901340097942 1.880893989147954 0  -0.4920225169641509 2.564371687128368 0  0.3926990816987241 3.048 0  1.178097245096172 0 0  1.155705348811136 2.643920532523289 0  -1.178097245096172 3.048 0  -1.178097245096172 0 0  -0.1391296372266528 0.8873724190154949 0  -1.10527745318919 2.528282743051346 0  -0.9817477042468103 0.4742759268549471 0  -0.3416666987802651 1.923944646262223 0  -1.570796326794897 1.905 0  -1.156555306160469 1.030861936336814 0  0.7648449098493205 0.4764142032227 0  0.3926990816987241 0 0  -0.4820376416180818 1.326151321396512 0  0.06374421723344185 0.4545169930886408 0  0.1972735722393064 1.163324878565267 0  0.3900417218314142 2.566922767651637 0  1.570796326794897 0.381 0  1.188877612935585 1.295195418509834 0  1.179914028402171 0.5308585702661928 0  0.7660075594126428 1.865233039449035 0  0.6330293131838399 1.095171663968746 0  -1.201232463242587 2.144287146570887 0  -0.3926990816987241 0 0  -0.3926990816987241 3.048 0  1.178097245096172 3.048 0  0.7684409382397209 2.649499271873753 0  -1.236954997304436 1.7145 0  -0.1088573452899617 2.666651387486592 0  -1.570796326794897 1.143 0  -1.570796326794897 0.381 0  1.570796326794897 1.143 0  1.570796326794897 1.905 0  1.570796326794897 2.667 0  -1.570796326794897 2.667 0  -0.6730839067294777 1.743003792473746 0  1.199831389396789 2.275437921225198 0  0.3936837537618041 1.495643752599615 0  0.01539369169800942 1.928544709491661 0  0.4156551272669651 0.4219033286010089 0  0.3401546043708642 2.225103550856524 0  -0.3379897306391274 2.262671266279809 0  -1.23624174049596 0.7000907110925838 0  -1.265224057170889 1.360131453617764 0  -0.1224339018241312 1.210043725539656 0  1.289286200625578 0.9918698881707442 0  -0.7751142346211329 1.197848666814478 0  1.003546186550495 0.2660297686099683 0  0.1963495408493621 2.808538634159524 0  -0.8079023568959116 2.703551618159924 0  -0.3480226984353056 1.610059855391589 0  1.075147893506229 1.598068412087719 0  -0.8290627893979112 2.399544545867518 0  0.6965048925255637 0.7972100472372819 0  -1.257765094876752 0.3107645483825858 0  -0.6724835324263325 0.5684215760013651 0  -0.3995059642389676 0.7173610149075536 0  0.9136951972244611 1.187564504803626 0  -0.964259350608907 0.8095514380783081 0  -0.7565990314517038 0.2897049735129544 0  -0.9603859887840651 1.834914433810327 0  -0.1457055965762301 0.2521630699436873 0  0.1963495408493621 0.2041911848053476 0  0.6241974196550791 0.231695999252114 0  -0.4098815011312292 1.029160072548571 0  0.9592800715482012 2.452820690856482 0  0.9648684169153161 2.840751931000357 0  0.5890486225480862 3.048 0  0.164631037784102 1.698913854044779 0  0.5664480837073581 2.070920238540226 0  1.374107957806476 1.7145 0  0.9861079629544779 2.102471438422718 0  -1.374446785945534 3.048 0  -1.288827800789186 2.762781313597598 0  1.353232957571468 2.835634774483438 0  1.302158670506274 0.2650078124691045 0  0.1394669809465775 0.8907702620243092 0  -0.5631487221059602 2.830992231257464 0  1.372837635547072 2.483038902756259 0  -0.1493395228831287 0.618617259260858 0  -1.32327048447753 2.378769394323546 0  0.56080204725298 1.699622905297025 0  1.570796326794897 2.0955 0  0.5403456747786348 2.786446773498672 0  -0.9817477042468103 0 0  -0.5847039960246873 2.326882432521036 0  0.1225428891326576 2.526494255738436 0  -0.9817477042468103 3.048 0  -0.5522901559753841 2.071668786267058 0  -1.370864794258017 0.9075071715671403 0  -1.043891045637083 1.250611220450313 0  -0.1652643923634778 2.09141301924679 0  -1.044446740946883 2.764982067459552 0  -0.1610370079820225 1.763280243096074 0  -0.3136912237752232 2.810498886211121 0  0.5400974078002052 2.370472734822523 0  -0.7009161718414544 1.427243880175582 0  0.902907438200502 0.6735032943420574 0  -0.9879196222361604 0.2371379634274736 0  1.319268546233604 0.7412771512308228 0  0.5578373583610097 0.608241627784878 0  0.5756483102040615 1.332636919938113 0  -0.5281701577409 0.2032348774530744 0  -0.266729509930448 2.489223923247521 0  -1.570796326794897 0.5715 0  -0.2430656531629531 1.405631921096758 0  0.253622337931223 0.5884397663452474 0  1.284044721043478 1.50372037617638 0  1.570796326794897 1.3335 0  -0.9904333867980613 2.235882060371517 0  0.9871146764618406 1.395690276854986 0  -1.374446785945534 0 0  0.3981951765262902 1.020833864419675 0  0.1670583512016766 1.405384478716078 0  -1.330327693484763 1.938638984813805 0  0.2106653067452682 2.040805097078886 0  1.570796326794897 0.5715 0  1.334822181490566 2.081373939821734 0  -0.9303227889097604 1.033236710715967 0  -1.34639228476592 1.150776798768373 0  -1.570796326794897 0.1905 0  1.106697207481837 1.099709897393925 0  0.4137866939027022 0.2104288000383385 0  -1.570796326794897 2.0955 0  0.9761377489246634 0.4754251272674608 0  1.377108465632662 0.4605024587280874 0  1.108114944719677 0.7297638044096917 0  0.3695908229138113 1.285681859811955 0  0.9799112840676307 1.800306505551499 0  -0.001696842075803034 1.042028929293442 0  1.366537356420357 1.185723700290463 0  -1.385029840108318 0.47625 0  0.05842649915411911 0.6874537157920781 0  -1.183268988745763 0.4997334438341218 0  -0.6073502281622543 1.081347079085406 0  -1.026941765261019 2.031536576622642 0  -1.570796326794897 2.8575 0  0.8159726599830506 1.011928543199529 0  0.7652782693277244 2.849245002237192 0  -0.5252326280373281 1.520125074885265 0  0.7648326174724897 2.063743853392348 0  0.757099741434616 1.666331708950521 0  -0.1963495408493621 3.048 0  -0.005410422648647092 2.843333256403111 0  -1.395368347654653 2.19075 0  1.374446785945534 0 0  0.9817477042468103 3.048 0  0.1963495408493621 0 0  -0.1963495408493621 0 0  0.5890486225480862 0 0  0.1963495408493621 3.048 0  0.9817477042468103 0 0  1.374446785945534 3.048 0  -0.5890486225480862 3.048 0  -0.5890486225480862 0 0  -0.06865319188571758 2.471928549109083 0  1.159049337209348 2.838090892449816 0  0.5817075150535711 2.596909954318943 0  0.7656515661107315 2.455866896253367 0  0.9620790410056582 2.647119292933887 0  0.3676829480103987 1.68739481709134 0  -0.8886101495223063 2.878912500124773 0  -0.3317793704126089 0.1873756770788371 0  -1.383208664444332 2.577695923010364 0  -1.043597917648523 1.648216005744782 0  -1.362178343413552 1.546177620526679 0  -1.570796326794897 1.7145 0  -0.8462722504471433 1.648434957877788 0  -0.588076822054871 0.3899352838051667 0  1.570796326794897 2.8575 0  -1.570796326794897 0.9525 0  1.570796326794897 0.1905 0  1.570796326794897 1.7145 0  1.570796326794897 0.9525 0  -1.570796326794897 1.3335 0  1.570796326794897 2.4765 0  -1.570796326794897 2.4765 0  0.8103777117362174 0.287468585434799 0  -1.145334531235929 1.881885620422454 0  -0.8620560674467429 0.6361265362229395 0  -0.321688879263093 1.207848147265888 0  -0.7798551871678058 1.904240998338365 0  -0.4724954359209014 1.769587110195458 0  -0.667402576232105 2.495985359319255 0  0.5365063314111709 0.8945566719544227 0  0.1855702280441107 2.342745654422604 0  0.55510120733165 1.88540118775351 0  1.188295809121239 2.460939894898248 0  1.38587897409014 2.260870763688798 0  1.383978812419919 1.901097375082534 0  -0.2265735189171196 1.049795314962436 0  0.7387890113368257 1.246392780742437 0  0.5763234466275948 1.516457524623135 0  -0.203279258075353 0.4348372558382012 0  -1.179202350299698 1.523245956950107 0  -1.151844216720993 2.318990544544152 0  -1.410806081599612 0.6547540757597369 0  0.04190096621848406 2.108399609871347 0  0.5925649981629265 0.4343292987553075 0  0.2371113691258682 0.4102816185532077 0  1.334103818253725 2.657728219912091 0  0.9405077369493808 2.275181409651143 0  -0.633962040105568 2.669303984283053 0  -0.6045614816381242 1.904349918307267 0  1.159697673803787 2.079238591118184 0  -0.004643801590645341 1.347662554528907 0  0.3691400131247499 2.395423267764724 0  0.3855005143298051 2.055603978165229 0  0.01839821075864462 0.1788084577298442 0  -0.9568120219060965 2.61629404172056 0  0.1783135820912846 1.871116340262054 0  0.3649950158263953 2.745288921627024 0  -0.3142054567155264 0.5671999812317062 0  -0.4933549623779417 0.564740705097546 0  0.06092775470575962 2.685867440722903 0  -0.1801827362748675 2.337517890002858 0  -1.063355415037434 0.6386189748554 0  -1.205242865599393 0.8676070232612285 0  -0.4176020549597784 2.412196127179313 0  -0.3347051678178828 2.093252344225509 0  -1.427772711006951 0.2857500000000001 0  0.8835729338221293 0.1362887052191026 0  -0.6831011505337878 0.1389086130988801 0  -1.403875662049666 1.77648180985222 0  1.394165436236593 1.362588987767805 0  -0.5007942298153729 0.8700626692351643 0  -0.6093220848169366 0.7321530406295067 0  0.007534593095922887 1.760126887057542 0  -1.276272015520854 0.140425968067263 0  -0.7270478511000733 2.847016806985676 0  1.436331331726002 0.85725 0  -0.1770320080670663 1.927167796173981 0  0.7200726153501196 0.6345534912379586 0  -1.099983122078282 0.3577316115390257 0  0.2324759135153202 2.648405702327079 0  0.9054371869972004 1.582409569434113 0  0.5000672234640285 1.188708149930449 0  -0.340793734207542
[...]
<PointData  Vectors="phi"> 
<DataArray  type="Float64"  Name="phi"  NumberOfComponents="3" format="ascii">-1.0160014002334805e+00 3.0480000000000707e+00 -1.6394663806385164e-05  -1.0160009063445241e+00 9.6196648522775200e-16 -1.1024692421479383e-05  1.0160011549059955e+00 8.8763414767192448e-16 -1.2880430320012220e-05  1.0160004119048436e+00 3.0480000000000707e+00 -7.5124766758745724e-06  -5.9323867922543162e-06 2.0380033150517491e-15 1.0160014617967328e+00  -7.5205002774876710e-06 3.0480000000000755e+00 1.0160015691713293e+00  -1.0160013779867767e+00 1.5240000000000371e+00 -1.7822004999625605e-05  1.0160019401379758e+00 1.5240000000000353e+00 -2.5980028200050878e-05  -4.6823963163653441e-02 1.5240000000000378e+00 1.0149224085963018e+00  7.1842640024551419e-01 1.2533010415932625e-15 7.1841585980777012e-01  7.0167146212739517e-01 2.2622426016614154e+00 7.3479223023086926e-01  -7.1842536341684560e-01 1.9807423779887604e-15 7.1841735502425541e-01  -7.1842175226483318e-01 3.0480000000000702e+00 7.1842047991743330e-01  3.8882305326504585e-01 7.7457592419615362e-01 9.3865757180581000e-01  -1.0160015283720911e+00 7.6200000000001811e-01 -1.9522291351363219e-05  -7.3479548038423148e-01 2.0955000000000479e+00 7.0166623882624035e-01  -6.4105266946043971e-01 8.9153435706759165e-01 7.8823512950816221e-01  7.1841876365667590e-01 3.0480000000000702e+00 7.1842338882790924e-01  7.1361705934985620e-01 1.4684109489605721e+00 7.2319484343327889e-01  6.2810774324659234e-06 2.2853027749732391e+00 1.0160014245979485e+00  -1.0160016739088049e+00 2.2860000000000591e+00 -2.0693727342651152e-05  1.0160023943049079e+00 7.6200000000001922e-01 -3.0872236450436655e-05  1.0160047128987357e+00 2.2860000000000502e+00 -5.4467367544591454e-05  -8.1900700397043291e-01 1.4734829796066160e+00 6.0123786859186323e-01  8.4556828865713418e-01 9.0036291426714887e-01 5.6327090554642301e-01  -3.8880659944582341e-01 4.0646975490615861e-01 9.3866279512347239e-01  9.3840178116760109e-01 1.9050000000000509e+00 3.8943733339712039e-01  3.6671140250905065e-01 1.8808939891480034e+00 9.4751489140233969e-01  -4.7998334560302547e-01 2.5643716871284288e+00 8.9547539246623287e-01  3.8880734654741261e-01 3.0480000000000724e+00 9.3866259946931541e-01  9.3866262493341768e-01 1.7495939813522261e-15 3.8880683302458569e-01  9.2971635650451534e-01 2.6439205325233504e+00 4.0974112224805614e-01  -9.3866229931188827e-01 3.0480000000000702e+00 3.8880659239213938e-01  -9.3865930021716770e-01 1.4935610161129648e-15 3.8881454656532288e-01  -1.4090688009371188e-01 8.8737241901551644e-01 1.0061827065074898e+00  -9.0789380283018739e-01 2.5282827430514105e+00 4.5606242293391391e-01  -8.4477197849831864e-01 4.7427592685495834e-01 5.6446332682984557e-01  -3.4041217927394118e-01 1.9239446462622694e+00 9.5727715968879235e-01  -1.0160020798373086e+00 1.9050000000000462e+00 -2.4414834651932767e-05  -9.3006975681560811e-01 1.0308619363368396e+00 4.0893729908554016e-01  7.0350698660041400e-01 4.7641420322271133e-01 7.3303229717109908e-01  3.8881348618003275e-01 1.3794713509362857e-15 9.3866003016312782e-01  -4.7100184800752048e-01 1.3261513213965452e+00 9.0023169509511758e-01  6.4716148476500021e-02 4.5451699308865062e-01 1.0139391421748682e+00  1.9913841273466382e-01 1.1633248785652963e+00 9.9629508471006023e-01  3.8632790958050600e-01 2.5669227676516999e+00 9.3968722765265489e-01  1.0160012946333454e+00 3.8100000000000861e-01 -1.9328909911846528e-05  9.4280264522315849e-01 1.2951954185098660e+00 3.7865865622246836e-01  9.3936804507517080e-01 5.3085857026620509e-01 3.8710030093405873e-01  7.0435679217316405e-01 1.8652330394490799e+00 7.3221668277768537e-01  6.0106164605631940e-01 1.0951716639687719e+00 8.1913601138363756e-01  -9.4740432845740308e-01 2.1442871465709379e+00 3.6699323322653238e-01  -3.8880396903286385e-01 1.2166722549200729e-15 9.3866379985367643e-01  -3.8880472633281898e-01 3.0480000000000755e+00 9.3866365843642985e-01  9.3866011363275836e-01 3.0480000000000733e+00 3.8881166739250150e-01  7.0613571605316228e-01 2.6494992718738155e+00 7.3050044757273946e-01  -9.5990862950866129e-01 1.7145000000000408e+00 3.3291710869142244e-01  -1.1038540398634913e-01 2.6666513874866560e+00 1.0099885180218977e+00  -1.0160020763760502e+00 1.1430000000000282e+00 -2.6743343040919900e-05  -1.0160018614267270e+00 3.8100000000000844e-01 -2.5177346097451513e-05  1.0160006877729872e+00 1.1430000000000275e+00 -9.9550011305385936e-06  1.0160044969988040e+00 1.9050000000000447e+00 -5.1972619331981956e-05  1.0160020542193795e+00 2.6670000000000642e+00 -2.3088361112868547e-05  -1.0160016801821274e+00 2.6670000000000629e+00 -2.2518885985741844e-05  -6.3337694232351116e-01 1.7430037924737880e+00 7.9441341460691994e-01  9.4688920203467475e-01 2.2754379212252531e+00 3.6832431084752160e-01  3.8974161016397352e-01 1.4956437525996498e+00 9.3827556307426141e-01  1.5636276244022349e-02 1.9285447094917090e+00 1.0158809168063008e+00  4.1023559816988098e-01 4.2190332860101942e-01 9.2949830013095525e-01  3.3895774939400153e-01 2.2251035508565771e+00 9.5779306872160674e-01  -3.3689641227706452e-01 2.2626712662798627e+00 9.5852023062823555e-01  -9.5966722464667387e-01 7.0009071109260068e-01 3.3361471348875388e-01  -9.6893643988779632e-01 1.3601314536177955e+00 3.0565036611235374e-01  -1.2409742191729331e-01 1.2100437255396852e+00 1.0083949587328378e+00  9.7601263413592831e-01 9.9186988817076704e-01 2.8223858577098832e-01  -7.1098687970207142e-01 1.1978486668145063e+00 7.2578172848129530e-01  8.5687416395953830e-01 2.6602976860997402e-01 5.4591699142671113e-01  1.9821846402816490e-01 2.8085386341595870e+00 9.9647854125329494e-01  -7.3441672306036399e-01 2.7035516181599886e+00 7.0206424220667241e-01  -3.4650901483832142e-01 1.6100598553916285e+00 9.5508726968747759e-01  8.9373624316691691e-01 1.5980684120877555e+00 4.8321515837873152e-01  -7.4909647795455780e-01 2.3995445458675744e+00 6.8637662963842072e-01  6.5181975122205882e-01 7.9721004723730116e-01 7.7935439334005951e-01  -9.6663352752423037e-01 3.1076454838259315e-01 3.1285816145881162e-01  -6.3289760490493996e-01 5.6842157600137866e-01 7.9479530138269650e-01  -3.9519476045939145e-01 7.1736101490757032e-01 9.3599257649752965e-01  8.0445230913754751e-01 1.1875645048036552e+00 6.2057984189675874e-01  -8.3476882180364376e-01 8.0955143807832841e-01 5.7915537195281008e-01  -6.9743546484744823e-01 2.8970497351296143e-01 7.3881196699916762e-01  -8.3253229553880137e-01 1.8349144338103693e+00 5.8236511264576662e-01  -1.4753885239213041e-01 2.5216306994369297e-01 1.0052332415526251e+00  1.9822745640485573e-01 2.0419118480535234e-01 9.9647702453552833e-01  5.9380055805543752e-01 2.3169599925211956e-01 8.2441468949521146e-01  -4.0487161966976676e-01 1.0291600725485976e+00 9.3184651866335755e-01  8.3187984445721441e-01 2.4528206908565404e+00 5.8329707433374300e-01  8.3512723482414997e-01 2.8407519310004252e+00 5.7863737054658926e-01  5.6446347836204691e-01 3.0480000000000711e+00 8.4477156033046596e-01  1.6652028243013545e-01 1.6989138540448205e+00 1.0022631178836088e+00  5.4522435179563289e-01 2.0709202385402761e+00 8.5731531458589660e-01  9.9641432698245613e-01 1.7145000000000417e+00 1.9853988832711297e-01  8.4722409562632284e-01 2.1024714384227674e+00 5.6077859611594805e-01  -9.9647884979067836e-01 3.0480000000000707e+00 1.9820969646591380e-01  -9.7587936229973959e-01 2.7627813135976655e+00 2.8270050335802743e-01  9.9205057068607694e-01 2.8356347744835042e+00 2.1930394547874191e-01  9.7956042486878658e-01 2.6500781246911065e-01 2.6967172991393590e-01  1.4122782993319952e-01 8.9077026202433274e-01 1.0061392735554355e+00  -5.4241315877827601e-01 2.8309922312575351e+00 8.5909776802934479e-01  9.9615927966470208e-01 2.4830389027563173e+00 1.9981295743261299e-01  -1.5116647766969968e-01 6.1861725926087230e-01 1.0046931582939962e+00  -9.8503975725118376e-01 2.3787693943235997e+00 2.4891404274208379e-01  5.4037890041064074e-01 1.6996229052970691e+00 8.6037744991149134e-01  1.0160018647203408e+00 2.0955000000000528e+00 -2.3001341444991122e-05  5.2268014216499192e-01 2.7864467734987413e+00 8.7124436374346526e-01  -8.4477293943285037e-01 1.2878842355973248e-15 5.6446110444223829e-01  -5.6078180027909375e-01 2.3268824325210913e+00 8.4722107045082951e-01  1.2418674230266924e-01 2.5264942557385006e+00 1.0083841725234548e+00  -8.4477447050442878e-01 3.0480000000000707e+00 5.6445882453622820e-01  -5.3302306882243344e-01 2.0716687862671108e+00 8.6495475285440060e-01  -9.9576469977762538e-01 9.0750717156716221e-01 2.0177174877867862e-01  -8.7819458952296292e-01 1.2506112204503417e+00 5.1091747298320156e-01  -1.6713682617782688e-01 2.0914130192468385e+00 1.0021601361517822e+00  -8.7848216374547039e-01 2.7649820674596182e+00 5.1042046097290572e-01  -1.6291168921466093e-01 1.7632802430961165e+00 1.0028560136029343e+00  -3.1352328356646469e-01 2.8104988862111853e+00 9.6641913275726121e-01  5.2245392443623262e-01 2.3704727348225791e+00 8.7137993185594875e-01  -6.5523022384484886e-01 1.4272438801756162e+00 7.7648764848479079e-01  7.9769441747260827e-01 6.7350329434207312e-01 6.2923885040902205e-01  -8.4824262145817930e-01 2.3713796342747934e-01 5.5923668830554507e-01  9.8402949659369987e-01 7.4127715123084037e-01 2.5287446801679531e-01  5.3782299035077541e-01 6.0824162778489277e-01 8.6197845173142196e-01  5.5308397103557649e-01 1.3326369199381454e+00 8.5226552024415336e-01  -5.1200803420237828e-01 2.0323487745307955e-01 8.7755757979615623e-01  -2.6778656715512766e-01 2.4892239232475837e+00 9.8007646625514655e-01  -1.0160013086542730e+00 5.7150000000001355e-01 -1.5179575974926490e-05  -2.4452675430747817e-01 1.4056319210967918e+00 9.8613726013271108e-01  2.5491998053737119e-01 5.8843976634526196e-01 9.8350165647305643e-01  9.7451671875721824e-01 1.5037203761764162e+00 2.8736322919543927e-01  1.0160012373399643e+00 1.3335000000000299e+00 -1.4679943589896405e-05  -8.4964131690783062e-01 2.2358820603715688e+00 5.5710933736606105e-01  8.4778961586464807e-01 1.3956902768550190e+00 5.5992166080148897e-01  -9.9647992292312537e-01 1.6654876386767355e-15 1.9820790808326538e-01  3.9396289111251992e-01 1.0208338644196993e+00 9.3651150637870151e-01  1.6894909452916448e-01 1.4053844787161132e+00 1.0018566508301141e+00  -9.8676501041513054e-01 1.9386389848138510e+00 2.4197846257831782e-01  2.1245836143971328e-01 2.0408050970789429e+00 9.9354026528236405e-01  1.0160018918848290e+00 5.7150000000001289e-01 -2.6640150947106396e-05  9.8784280693676307e-01 2.0813739398217841e+00 2.3754229599774868e-01  -8.1464813264073688e-01 1.0332367107159919e+00 6.0713219121321760e-01  -9.9052901629781642e-01 1.1507767987684001e+00 2.2607798229721202e-01  -1.0160023763425832e+00 1.9050000000000503e-01 -3.3817703680955700e-05  9.0853218985080242e-01 1.0997098973939494e+00 4.5478346431176514e-01  4.0851951366580225e-01 2.1042880003834361e-01 9.3025311965818136e-01  -1.0160025152822731e+00 2.0955000000000510e+00 -3.1361204165825054e-05  8.4159337947778401e-01 4.7542512726747138e-01 5.6919117921878182e-01  9.9700298871182957e-01 4.6050245872809858e-01 1.9555889279845592e-01  9.0917670594589772e-01 7.2976380440970834e-01 4.5349338579935750e-01  3.6701166400213053e-01 1.2856818598119859e+00 9.4739763137909316e-01  8.4373512195890665e-01 1.8003065055515439e+00 5.6601296939612622e-01  -1.7263644396180269e-03 1.0420289292934692e+00 1.0160001357702657e+00  9.9488076498375388e-01 1.1857237002904910e+00 2.0608421912663358e-01  -9.9852231674460612e-01 4.7625000000001166e-01 1.8764705828093992e-01  5.9323725257695477e-02 6.8745371579209535e-01 1.0142684740796970e+00  -9.4066126614585821e-01 4.9973344383413404e-01 3.8394642052715583e-01  -5.7982970872316852e-01 1.0813470790854354e+00 8.3429978735898336e-01  -8.6941212268720147e-01 2.0315365766226900e+00 5.2571926934861846e-01  -1.0160021976707554e+00 2.8575000000000661e+00 -3.0406092251098711e-05  7.4004846957676962e-01 1.0119285431995528e+00 6.9612325974342604e-01  7.0382950560838931e-01 2.8492450022372631e+00 7.3272310338880509e-01  -5.0943682708074378e-01 1.5201250748853008e+00 8.7905255082320943e-01  7.0348751965908551e-01 2.0637438533923977e+00 7.3305188283842304e-01  6.9780055880904013e-01 1.6663317089505614e+00 7.3846773537740740e-01  -1.9821855329246896e-01 3.0480000000000729e+00 9.9647799871511877e-01  -5.4781950757498699e-03 2.8433332564031830e+00 1.0159884392451881e+00  -1.0004068238255637e+00 2.1907500000000568e+00 1.7732952537979066e-01  9.9647922651628495e-01 1.7402093009117464e-15 1.9821036753715940e-01  8.4477075312233318e-01 3.0480000000000680e+00 5.6446423339729668e-01  1.9820905574570274e-01 1.4285912213847658e-15 9.9647969194740904e-01  -1.9821734444019298e-01 1.5529688730383629e-15 9.9647774496446007e-01  5.6445660763387184e-01 1.4639749627705961e-15 8.4477599958083494e-01  1.9821272648664920e-01 3.0480000000000742e+00 9.9647917568987310e-01  8.4477341197061540e-01 9.9583024151588597e-16 5.6445967227092175e-01  9.9647745421836986e-01 3.0480000000000702e+00 1.9821720179334046e-01  -5.6446064788541805e-01 3.0480000000000733e+00 8.4477396182370212e-01  -5.6446182190181826e-01 9.9891780519711846e-16 8.4477234387204314e-01  -6.9702192346062244e-02 2.4719285491091458e+00 1.0136077124838541e+00  9.3108707267827984e-01 2.8380908924498853e+00 4.0661410536377318e-01  5.5824210813437969e-01 2.5969099543190066e+00 8.4889620198312443e-01  7.0409927374728842e-01 2.4558668962534282e+00 7.3246405610865040e-01  8.3351056345375674e-01 2.6471192929339518e+00 5.8096352306573817e-01  3.6520297710975475e-01 1.6873948170913815e+00 9.4809557546234968e-01  -7.8861247285801872e-01 2.8789125001248426e+00 6.4058446233996025e-01  -3.3093817604308590e-01 1.8737567707884184e-01 9.6059268488288441e-01  -9.9817689432332224e-01 2.5776959230104279e+00 1.8947514886884853e-01  -8.7804829122633921e-01 1.6482160057448219e+00 5.1116499956909323e-01  -9.9397137998222918e-01 1.5461776205267173e+00 2.1042543702613981e-01  -1.0160025156252750e+00 1.7145000000000405e+00 -3.4889062154038925e-05  -7.6079185091150991e-01 1.6484349578778275e+00 6.7339038785742855e-01  -5.6363947834085304e-01 3.8993528380517617e-01 8.4532154921552805e-01  1.0160016635651490e+00 2.8575000000000683e+00 -2.1272495339646822e-05  -1.0160012672433498e+00 9.5250000000002355e-01 -1.7744918112630899e-05  1.0160027908748859e+00 1.9050000000000436e-01 -2.9357388046746290e-05  1.0160016248172332e+00 1.7145000000000443e+00 -2.1202304189520962e-05  1.0160038317072577e+00 9.5250000000002288e-01 -5.0170592059542820e-05  -1.0160027732536370e+00 1.3335000000000305e+00 -3.2434735765436595e-05  1.0160013114399655e+00 2.4765000000000588e+00 -1.6838658508961841e-05  -1.0160014507822601e+00 2.4765000000000503e+00 -1.8435328170256586e-05  7.3614022452859107e-01 2.8746858543480580e-01 7.0025410268686561e-01  -9.2542351778105203e-01 1.8818856204224983e+00 4.1934445567792666e-01  -7.7133284882047370e-01 6.3612653622295579e-01 6.6129005207488722e-01  -3.2123096024217673e-01 1.2078481472659184e+00 9.6388227783011704e-01  -7.1444302790572745e-01 1.9042409983384114e+00 7.2237915683096132e-01  -4.6239717377804540e-01 1.7695871101955005e+00 9.0468128356943944e-01  -6.2884362425797669e-01 2.4959853593193158e+00 7.9800616698495774e-01  5.1930699725347362e-01 8.9455667195443900e-01 8.7325984442551352e-01  1.8746084348014183e-01 2.3427456544226617e+00 9.9855740148922179e-01  5.3547411366106501e-01 1.8854011877535441e+00 8.6343948712164587e-01  9.4258021435894679e-01 2.4609398948982926e+00 3.7921207973495213e-01  9.9868423201350986e-01 2.2608707636888328e+00 1.8679632177846250e-01  9.9832121138585483e-01 1.9010973750825666e+00 1.8871818853013234e-01  -2.2823267456821567e-01 1.0497953149624626e+00 9.9003530530851802e-01  6.8415389707123797e-01 1.2463927807424631e+00 7.5112848692590606e-01  5.5366599206073897e-01 1.5164575246231657e+00 8.5188736509988883e-01  -2.0511194799210677e-01 4.3483725583821164e-01 9.9508176203886944e-01  -9.3908874229046335e-01 1.5232459569501391e+00 3.8777798829987337e-01  -9.2813547102109417e-01 2.3189905445441958e+00 4.1331278453945897e-01  -1.0030291588144729e+00 6.5475407575975131e-01 1.6184362973151975e-01  4.2542691910615590e-02 2.1083996098713849e+00 1.0151111999880040e+00  5.6744572776964386e-01 4.3432929875531562e-01 8.4277324516716179e-01  2.3867199326838548e-01 4.1028161855321488e-01 9.8757116449422833e-01  9.8767573263625008e-01 2.6577282199121353e+00 2.3823726875788076e-01  8.2078640685631321e-01 2.2751814096511835e+00 5.9880850019271670e-01  -6.0180864071102558e-01 2.6693039842831086e+00 8.1858786652719040e-01  -5.7749792268496725e-01 1.9043499183073034e+00 8.3591710751144921e-01  9.3136058807426403e-01 2.0792385911182216e+00 4.0599095523378842e-01  -4.7233784111170461e-03 1.3476625545289300e+00 1.0159917464263113e+00  3.6657454547170021e-01 2.3954232677647660e+00 9.4756732612697492e-01  3.8205578168757004e-01 2.0556039781652613e+00 9.4143189319440024e-01  1.8685885258262314e-02 1.7880845772984721e-01 1.0158310901705965e+00  -8.3043733757800153e-01 2.6162940417206033e+00 5.8535167191068793e-01  1.8020815491086853e-01 1.8711163402620929e+00 9.9989171847642866e-01  3.6264446112792903e-01 2.7452889216270702e+00 9.4907850256873760e-01  -3.1399678639553302e-01 5.6719998123171511e-01 9.6626452667375429e-01  -4.8118900814489535e-01 5.6474070509755581e-01 8.9482903939641745e-01  6.1852243410737869e-02 2.6858674407229461e+00 1.0141184216197638e+00  -1.8206818679351580e-01 2.3375178900029057e+00 9.9955549037960600e-01  -8.8797582299365518e-01 6.3861897485541630e-01 4.9371749997265485e-01  -9.4886958785734676e-01 8.6760702326124284e-01 3.6319024526790122e-01  -4.1206953711620131e-01 2.4121961271793504e+00 9.2868644188834149e-01  -3.3376277350906208e-01 2.0932523442255406e+00 9.5961589892717603e-01  -1.0056255932671356e+00 2.8575000000000533e-01 1.4483100724121739e-01  7.8537610108368683e-01 1.3628870521910544e-01 6.4454799262364737e-01  -6.4129633622000837e-01 1.3890861309888261e-01 7.8803509634411606e-01  -1.0018771117691494e+00 1.7764818098522561e+00 1.6882522740365555e-01  1.0001960212999956e+00 1.3625889877678323e+00 1.7851462157616391e-01  -4.8780098624122376e-01 8.7006266923517916e-01 8.9124298669357316e-01  -5.8145827990009780e-01 7.3215304062952047e-01 8.3316703480938348e-01  7.6664629896410572e-03 1.7601268870575704e+00 1.0159735660033617e+00  -9.7225421505467524e-01 1.4042596806726554e-01 2.9492630843798945e-01  -6.7529858927938813e-01 2.8470168069857356e+00 7.5909835066025488e-01  1.0068298138770240e+00 8.5725000000001272e-01 1.3620799385212545e-01  -1.7893213974135810e-01 1.9271677961740143e+00 1.0001209257066586e+00  6.6999793557033893e-01 6.3455349123796811e-01 7.6378141393622612e-01  -9.0545593651297440e-01 3.5773161153903138e-01 4.6087963526022685e-01  2.3407449572898290e-01 2.6484057023271177e+00 9.8867136886697693e-01  7.9928858325053254e-01 1.5824095694341425e+00 6.2721623228045287e-01  4.8716433610922055e-01 1.1887081499304706e+00 8.9158986520244787e-01  -3.3956479579571919e-01 2.6424674839547655e+00 9.5757926159248152e-01  7.9338907679592507e-01 1.9652618863380988e+00 6.3466107130397165e-01  9.2042073553585146e-01 1.7491133880938472e+00 4.3021788865549132e-01  -7.3417866850941416e-01 4.5713861351380614e-01 7.0231096085687172e-01  2.1199161630592353e-01 7.4476407517284626e-01 9.9363985568360702e-01  -6.3156105661428708e-01 2.1862805739729017e+00 7.9585849984359991e-01  -5.9028194472618323e-01 1.2422649699483912e+00 8.2693861846988426e-01  -7.0419383615644915e-01 1.0335827790098575e+00 7.3237376796251463e-01  -7.5637526566022062e-01 1.3454456986478718e+00 6.7834852655753797e-01  9.2198003304104659e-01 9.4285509192839789e-01 4.2686355178430041e-01  -9.4347023166788868e-01 1.1871007262301303e+00 3.7699580270477301e-01  8.9603110415084630e-01 1.2586352643124443e-01 4.7894369847124024e-01  9.0992784161896423e-01 3.8642602823993105e-01 4.5198468952399601e-01  -6.3192543557879510e-01 1.5837361903025624e+00 7.9556889223324390e-01  9.2096359472404732e-01 1.4517720171651824e+00 4.2905351450565815e-01  -8.6010848031232479e-01 2.3971463760527327e+00 5.