<?xml version="1.0"?>
<VTKFile type="UnstructuredGrid"  version="0.1"  >
<UnstructuredGrid>
<Piece  NumberOfPoints="758" NumberOfCells="1386">
<Points>
<DataArray  type="Float64"  NumberOfComponents="3"  format="ascii">-1.570796326794897 3.048 0  -1.570796326794897 0 0  1.570796326794897 0 0  1.570796326794897 3.048 0  0 0 0  0 3.048 0  -1.570796326794897 1.524 0  1.570796326794897 1.524 0  -0.04609926118424437 1.524 0  0.7853981633974483 0 0  0.7623485328053261 2.262242601661362 0  -0.7853981633974483 0 0  -0.7853981633974483 3.048 0  0.392699081698724 0.7745759241961347 0  -1.570796326794897 0.762 0  -0.8084477939895706 2.0955 0  -0.68277245543452 0.8915343570675713 0  0.7853981633974483 3.048 0  0.778743707341909 1.468410948960538 0  2.780093748954961e-16 2.285302774973185 0  -1.570796326794897 2.286 0  1.570796326794897 0.762 0  1.570796326794897 2.286 0  -0.9375370967763674 1.47348297960658 0  0.9831575747762593 0.9003629142671278 0  -0.3926990816987241 0.4064697549061488 0  1.177419588818055 1.905 0  0.3692901340097942 1.880893989147954 0  -0.4920225169641509 2.564371687128368 0  0.3926990816987241 3.048 0  1.178097245096172 0 0  1.155705348811136 2.643920532523289 0  -1.178097245096172 3.048 0  -1.178097245096172 0 0  -0.1391296372266528 0.8873724190154949 0  -1.10527745318919 2.528282743051346 0  -0.9817477042468103 0.4742759268549471 0  -0.3416666987802651 1.923944646262223 0  -1.570796326794897 1.905 0  -1.156555306160469 1.030861936336814 0  0.7648449098493205 0.4764142032227 0  0.3926990816987241 0 0  -0.4820376416180818 1.326151321396512 0  0.06374421723344185 0.4545169930886408 0  0.1972735722393064 1.163324878565267 0  0.3900417218314142 2.566922767651637 0  1.570796326794897 0.381 0  1.188877612935585 1.295195418509834 0  1.179914028402171 0.5308585702661928 0  0.7660075594126428 1.865233039449035 0  0.6330293131838399 1.095171663968746 0  -1.201232463242587 2.144287146570887 0  -0.3926990816987241 0 0  -0.3926990816987241 3.048 0  1.178097245096172 3.048 0  0.7684409382397209 2.649499271873753 0  -1.236954997304436 1.7145 0  -0.1088573452899617 2.666651387486592 0  -1.570796326794897 1.143 0  -1.570796326794897 0.381 0  1.570796326794897 1.143 0  1.570796326794897 1.905 0  1.570796326794897 2.667 0  -1.570796326794897 2.667 0  -0.6730839067294777 1.743003792473746 0  1.199831389396789 2.275437921225198 0  0.3936837537618041 1.495643752599615 0  0.01539369169800942 1.928544709491661 0  0.4156551272669651 0.4219033286010089 0  0.3401546043708642 2.225103550856524 0  -0.3379897306391274 2.262671266279809 0  -1.23624174049596 0.7000907110925838 0  -1.265224057170889 1.360131453617764 0  -0.1224339018241312 1.210043725539656 0  1.289286200625578 0.9918698881707442 0  -0.7751142346211329 1.197848666814478 0  1.003546186550495 0.2660297686099683 0  0.1963495408493621 2.808538634159524 0  -0.8079023568959116 2.703551618159924 0  -0.3480226984353056 1.610059855391589 0  1.075147893506229 1.598068412087719 0  -0.8290627893979112 2.399544545867518 0  0.6965048925255637 0.7972100472372819 0  -1.257765094876752 0.3107645483825858 0  -0.6724835324263325 0.5684215760013651 0  -0.3995059642389676 0.7173610149075536 0  0.9136951972244611 1.187564504803626 0  -0.964259350608907 0.8095514380783081 0  -0.7565990314517038 0.2897049735129544 0  -0.9603859887840651 1.834914433810327 0  -0.1457055965762301 0.2521630699436873 0  0.1963495408493621 0.2041911848053476 0  0.6241974196550791 0.231695999252114 0  -0.4098815011312292 1.029160072548571 0  0.9592800715482012 2.452820690856482 0  0.9648684169153161 2.840751931000357 0  0.5890486225480862 3.048 0  0.164631037784102 1.698913854044779 0  0.5664480837073581 2.070920238540226 0  1.374107957806476 1.7145 0  0.9861079629544779 2.102471438422718 0  -1.374446785945534 3.048 0  -1.288827800789186 2.762781313597598 0  1.353232957571468 2.835634774483438 0  1.302158670506274 0.2650078124691045 0  0.1394669809465775 0.8907702620243092 0  -0.5631487221059602 2.830992231257464 0  1.372837635547072 2.483038902756259 0  -0.1493395228831287 0.618617259260858 0  -1.32327048447753 2.378769394323546 0  0.56080204725298 1.699622905297025 0  1.570796326794897 2.0955 0  0.5403456747786348 2.786446773498672 0  -0.9817477042468103 0 0  -0.5847039960246873 2.326882432521036 0  0.1225428891326576 2.526494255738436 0  -0.9817477042468103 3.048 0  -0.5522901559753841 2.071668786267058 0  -1.370864794258017 0.9075071715671403 0  -1.043891045637083 1.250611220450313 0  -0.1652643923634778 2.09141301924679 0  -1.044446740946883 2.764982067459552 0  -0.1610370079820225 1.763280243096074 0  -0.3136912237752232 2.810498886211121 0  0.5400974078002052 2.370472734822523 0  -0.7009161718414544 1.427243880175582 0  0.902907438200502 0.6735032943420574 0  -0.9879196222361604 0.2371379634274736 0  1.319268546233604 0.7412771512308228 0  0.5578373583610097 0.608241627784878 0  0.5756483102040615 1.332636919938113 0  -0.5281701577409 0.2032348774530744 0  -0.266729509930448 2.489223923247521 0  -1.570796326794897 0.5715 0  -0.2430656531629531 1.405631921096758 0  0.253622337931223 0.5884397663452474 0  1.284044721043478 1.50372037617638 0  1.570796326794897 1.3335 0  -0.9904333867980613 2.235882060371517 0  0.9871146764618406 1.395690276854986 0  -1.374446785945534 0 0  0.3981951765262902 1.020833864419675 0  0.1670583512016766 1.405384478716078 0  -1.330327693484763 1.938638984813805 0  0.2106653067452682 2.040805097078886 0  1.570796326794897 0.5715 0  1.334822181490566 2.081373939821734 0  -0.9303227889097604 1.033236710715967 0  -1.34639228476592 1.150776798768373 0  -1.570796326794897 0.1905 0  1.106697207481837 1.099709897393925 0  0.4137866939027022 0.2104288000383385 0  -1.570796326794897 2.0955 0  0.9761377489246634 0.4754251272674608 0  1.377108465632662 0.4605024587280874 0  1.108114944719677 0.7297638044096917 0  0.3695908229138113 1.285681859811955 0  0.9799112840676307 1.800306505551499 0  -0.001696842075803034 1.042028929293442 0  1.366537356420357 1.185723700290463 0  -1.385029840108318 0.47625 0  0.05842649915411911 0.6874537157920781 0  -1.183268988745763 0.4997334438341218 0  -0.6073502281622543 1.081347079085406 0  -1.026941765261019 2.031536576622642 0  -1.570796326794897 2.8575 0  0.8159726599830506 1.011928543199529 0  0.7652782693277244 2.849245002237192 0  -0.5252326280373281 1.520125074885265 0  0.7648326174724897 2.063743853392348 0  0.757099741434616 1.666331708950521 0  -0.1963495408493621 3.048 0  -0.005410422648647092 2.843333256403111 0  -1.395368347654653 2.19075 0  1.374446785945534 0 0  0.9817477042468103 3.048 0  0.1963495408493621 0 0  -0.1963495408493621 0 0  0.5890486225480862 0 0  0.1963495408493621 3.048 0  0.9817477042468103 0 0  1.374446785945534 3.048 0  -0.5890486225480862 3.048 0  -0.5890486225480862 0 0  -0.06865319188571758 2.471928549109083 0  1.159049337209348 2.838090892449816 0  0.5817075150535711 2.596909954318943 0  0.7656515661107315 2.455866896253367 0  0.9620790410056582 2.647119292933887 0  0.3676829480103987 1.68739481709134 0  -0.8886101495223063 2.878912500124773 0  -0.3317793704126089 0.1873756770788371 0  -1.383208664444332 2.577695923010364 0  -1.043597917648523 1.648216005744782 0  -1.362178343413552 1.546177620526679 0  -1.570796326794897 1.7145 0  -0.8462722504471433 1.648434957877788 0  -0.588076822054871 0.3899352838051667 0  1.570796326794897 2.8575 0  -1.570796326794897 0.9525 0  1.570796326794897 0.1905 0  1.570796326794897 1.7145 0  1.570796326794897 0.9525 0  -1.570796326794897 1.3335 0  1.570796326794897 2.4765 0  -1.570796326794897 2.4765 0  0.8103777117362174 0.287468585434799 0  -1.145334531235929 1.881885620422454 0  -0.8620560674467429 0.6361265362229395 0  -0.321688879263093 1.207848147265888 0  -0.7798551871678058 1.904240998338365 0  -0.4724954359209014 1.769587110195458 0  -0.667402576232105 2.495985359319255 0  0.5365063314111709 0.8945566719544227 0  0.1855702280441107 2.342745654422604 0  0.55510120733165 1.88540118775351 0  1.188295809121239 2.460939894898248 0  1.38587897409014 2.260870763688798 0  1.383978812419919 1.901097375082534 0  -0.2265735189171196 1.049795314962436 0  0.7387890113368257 1.246392780742437 0  0.5763234466275948 1.516457524623135 0  -0.203279258075353 0.4348372558382012 0  -1.179202350299698 1.523245956950107 0  -1.151844216720993 2.318990544544152 0  -1.410806081599612 0.6547540757597369 0  0.04190096621848406 2.108399609871347 0  0.5925649981629265 0.4343292987553075 0  0.2371113691258682 0.4102816185532077 0  1.334103818253725 2.657728219912091 0  0.9405077369493808 2.275181409651143 0  -0.633962040105568 2.669303984283053 0  -0.6045614816381242 1.904349918307267 0  1.159697673803787 2.079238591118184 0  -0.004643801590645341 1.347662554528907 0  0.3691400131247499 2.395423267764724 0  0.3855005143298051 2.055603978165229 0  0.01839821075864462 0.1788084577298442 0  -0.9568120219060965 2.61629404172056 0  0.1783135820912846 1.871116340262054 0  0.3649950158263953 2.745288921627024 0  -0.3142054567155264 0.5671999812317062 0  -0.4933549623779417 0.564740705097546 0  0.06092775470575962 2.685867440722903 0  -0.1801827362748675 2.337517890002858 0  -1.063355415037434 0.6386189748554 0  -1.205242865599393 0.8676070232612285 0  -0.4176020549597784 2.412196127179313 0  -0.3347051678178828 2.093252344225509 0  -1.427772711006951 0.2857500000000001 0  0.8835729338221293 0.1362887052191026 0  -0.6831011505337878 0.1389086130988801 0  -1.403875662049666 1.77648180985222 0  1.394165436236593 1.362588987767805 0  -0.5007942298153729 0.8700626692351643 0  -0.6093220848169366 0.7321530406295067 0  0.007534593095922887 1.760126887057542 0  -1.276272015520854 0.140425968067263 0  -0.7270478511000733 2.847016806985676 0  1.436331331726002 0.85725 0  -0.1770320080670663 1.927167796173981 0  0.7200726153501196 0.6345534912379586 0  -1.099983122078282 0.3577316115390257 0  0.2324759135153202 2.648405702327079 0  0.9054371869972004 1.582409569434113 0  0.5000672234640285 1.188708149930449 0  -0.340793734207542
[...]
<PointData  Vectors="phi"> 
<DataArray  type="Float64"  Name="phi"  NumberOfComponents="3" format="ascii">-1.1934626491838123e+00 3.0370500922566954e+00 5.8682138382294300e-04  -1.0160099843069694e+00 1.0909101739035586e-07 -9.6615262588427198e-06  1.0160100971155059e+00 9.1686008108542210e-08 -1.1490475210101460e-05  1.1935005787884039e+00 3.0370308686709291e+00 4.9085599639994660e-04  -6.6364794565735751e-06 1.8236098924972705e-06 1.0160244230149800e+00  -1.2901154512788809e-03 2.4762618090327124e+00 -6.2381471331393379e-01  -1.0837714424494571e+00 1.5109056239525103e+00 -1.6992406427686877e-05  1.0843819071352085e+00 1.5108070446744366e+00 -2.6845375410915287e-05  -4.7183873350940680e-02 1.2893029385857491e+00 3.3801599382292541e-01  7.1842690073695559e-01 -2.6081902775652652e-07 7.1841632514501175e-01  5.8718598316410242e-01 2.1517200393934099e+00 2.5292138372331691e-01  -7.1842421862077477e-01 4.5014472880486651e-07 7.1841816435667349e-01  -5.8014594708763823e-01 2.8054922278549888e+00 -1.8199018525898872e-01  3.8762956196758985e-01 7.7134414196656131e-01 8.8037952512881013e-01  -1.0221909959208146e+00 7.5653217314007792e-01 -2.2259780492668855e-05  -6.4055602045742110e-01 2.0280724574668052e+00 3.6343687040140887e-01  -6.6267805715802586e-01 8.9502883388600074e-01 7.8417937315777120e-01  5.7921149992837873e-01 2.8047073107393783e+00 -1.8415939133785275e-01  6.9652937545497851e-01 1.4599524302567850e+00 6.2200933687682280e-01  -9.3430134454771969e-04 1.8921097600682142e+00 -1.3016796104085074e-01  -1.1773610497901379e+00 2.2694847111192913e+00 5.9704870416937829e-05  1.0222547259435275e+00 7.5650692925899876e-01 -3.0506468717381970e-05  1.1780530146664707e+00 2.2693306446179298e+00 -8.1587549633460344e-05  -8.4790801797297299e-01 1.4738653394278736e+00 5.7262309027682112e-01  8.7719909040121413e-01 8.9860687839566966e-01 5.7109706300281071e-01  -3.9498164073410441e-01 4.0855918985500617e-01 9.3641915400224984e-01  1.0067284187516174e+00 1.8982293426563046e+00 3.6715601376766616e-01  3.2807943863939082e-01 1.6657861025365943e+00 2.4031505450535123e-01  -4.0099147698612919e-01 2.2745786127293197e+00 -8.6952990928333709e-02  3.2442507712981256e-01 2.6200507081391105e+00 -4.3345196697620558e-01  9.3865796352473818e-01 -4.1234161365387060e-07 3.8880540757455545e-01  8.9310086999808325e-01 2.6061865499549826e+00 2.1100975453012003e-01  -8.6468073525565681e-01 2.9730896770220512e+00 4.6928108986447073e-02  -9.3865751068486136e-01 -1.2252125787791894e-07 3.8881450421143454e-01  -1.3860760747666540e-01 8.1596663039620732e-01 7.6577689720696562e-01  -8.6125671153640249e-01 2.4908389542335252e+00 2.5011372640000551e-01  -8.5490013936246623e-01 4.7281338874699419e-01 5.6783159070066935e-01  -3.0874418661961756e-01 1.6887085808958175e+00 1.9990358387436954e-01  -1.1363475044692442e+00 1.8884500730829394e+00 -2.7363487853549745e-05  -9.6369728049132386e-01 1.0259952074429413e+00 4.1378773730284657e-01  7.1581960892059227e-01 4.7666644229098093e-01 7.3809556103015117e-01  3.8881446521837432e-01 1.4719268958965144e-06 9.3866865865323135e-01  -4.3219341147706891e-01 1.2636960657489609e+00 6.2411602415626399e-01  6.5235058348148495e-02 4.5522818905894685e-01 9.8859393342175561e-01  1.9240876409233326e-01 1.0370706790701225e+00 6.0030968629485459e-01  3.3387280011089537e-01 2.2283308696659323e+00 -1.5401177358572393e-01  1.0193020482097430e+00 3.7831732785729816e-01 -1.9511283631797174e-05  9.9701349625965940e-01 1.2887425961849903e+00 3.8270655819152866e-01  9.4778720763850510e-01 5.2798583431760415e-01 3.8891509784875694e-01  6.2912396975767948e-01 1.8149283917105286e+00 4.5822903358931993e-01  5.9878788728732679e-01 1.0932052222715913e+00 7.5701704566196315e-01  -1.0074917247694146e+00 2.1348291918555709e+00 3.2495071318044322e-01  -3.8880235460206153e-01 -2.0171644187613850e-07 9.3866044417225147e-01  -3.2630414590652662e-01 2.6206409508064068e+00 -4.3205785869215840e-01  8.6404649904607544e-01 2.9723651552213100e+00 4.4418057120241404e-02  5.7287528359960582e-01 2.4740480711598729e+00 3.8544168117034677e-02  -1.0429542825583316e+00 1.7059418863081048e+00 3.2982975935648412e-01  -1.0934536949752527e-01 2.2057730004712393e+00 -3.4824613842306562e-01  -1.0389877955922200e+00 1.1344237073587939e+00 -2.2719600847499275e-05  -1.0193046895876794e+00 3.7832947580140691e-01 -2.4661669949015263e-05  1.0392610654832137e+00 1.1343731876328600e+00 -1.3432535418516702e-05  1.1370410651773759e+00 1.8883174627726640e+00 -5.0713320550612279e-05  1.1972491625333883e+00 2.6533236827570477e+00 -8.4115283555542629e-05  -1.1964380161884181e+00 2.6534416273453134e+00 4.4063188411142856e-05  -5.6072946937018897e-01 1.6802520800682101e+00 4.8545666029332069e-01  9.9119739529570827e-01 2.2632079677092798e+00 3.0441142733544702e-01  3.5271072418274019e-01 1.3677415098580255e+00 4.8333568120932358e-01  1.4816715296799439e-02 1.6080603248055465e+00 8.6720904779444843e-02  4.1719652849867384e-01 4.2404681469516253e-01 9.2806990998469785e-01  3.0439057671820374e-01 1.9294186114129763e+00 1.8054399209007973e-02  -3.0394940600517145e-01 1.9591201323277627e+00 -4.5207435673386412e-03  -9.7120796291625289e-01 6.9602991036891093e-01 3.3537835095631469e-01  -1.0260573511413660e+00 1.3517157459000659e+00 3.0834020863225464e-01  -1.2259943327342136e-01 1.0553652809211183e+00 5.4939719555021738e-01  9.9903268968799963e-01 9.8567108120516556e-01 2.8416232036791228e-01  -7.2691582071959182e-01 1.2000600689697616e+00 6.9592872888687185e-01  8.6138464265924952e-01 2.6502787599754180e-01 5.4755571655771518e-01  1.8354763390058809e-01 2.3446144634464559e+00 -4.0144101769269813e-01  -5.9897297859042953e-01 2.5366292420177374e+00 3.3355220341033276e-02  -3.1633316835741199e-01 1.4407660806584051e+00 3.9191627625380371e-01  9.4839467313176051e-01 1.5954500554136863e+00 4.6999000965910881e-01  -6.2929539628987130e-01 2.2939068732799814e+00 2.1532612546774083e-01  6.7521931976510952e-01 7.9995066818289584e-01 7.8345063562630779e-01  -9.7053981763803443e-01 3.0887546779259129e-01 3.1371653432517821e-01  -6.4884136142385296e-01 5.6983315076218166e-01 8.0100751190712915e-01  -3.9853260952172842e-01 7.1803394985780100e-01 9.0019864457138055e-01  8.4404582665134531e-01 1.1887752874495221e+00 6.1970872208035543e-01  -8.6114129638703418e-01 8.0799307828554390e-01 5.8658430639234349e-01  -7.0335470265761324e-01 2.8970064887129493e-01 7.4129920811095928e-01  -8.2436865075939225e-01 1.8252860650446385e+00 4.8487971097119109e-01  -1.4831397275376848e-01 2.5363314931523723e-01 9.9623569500014442e-01  1.9905580021975161e-01 2.0547641255776128e-01 9.9041596405200405e-01  5.9800834550511550e-01 2.3217266215050261e-01 8.2588051910066118e-01  -3.8655306433563236e-01 9.9583473248820609e-01 7.6051344357872430e-01  7.3298349709732580e-01 2.3850642372356390e+00 2.4388725508594453e-01  7.0737597134427788e-01 2.7156019727670753e+00 4.3251351480512165e-02  4.5346760947278320e-01 2.7117800206594316e+00 -3.0975656742559304e-01  1.6113332379668613e-01 1.4474881902713352e+00 2.5525053551637877e-01  4.5840750413084624e-01 1.9084693220231896e+00 2.4694513246503089e-01  1.0900246068320649e+00 1.7014413875858208e+00 1.9863285594036140e-01  8.0782835671750464e-01 2.0786451048460770e+00 3.9661006410305205e-01  -1.0495640490927691e+00 3.0248342500954855e+00 1.0774672212772657e-01  -1.0084180214604359e+00 2.7395835468031100e+00 1.7820041568587949e-01  1.0605220822147670e+00 2.8165316643113054e+00 1.4986001979326044e-01  9.8271817122775251e-01 2.6333098767286039e-01 2.7030669484160874e-01  1.3849387830628404e-01 8.1819344866302901e-01 7.6295976581562108e-01  -4.3886042721347374e-01 2.5257942878007862e+00 -1.9584909492505825e-01  1.1155412907126236e+00 2.4698857321459116e+00 1.8049645724372582e-01  -1.5048883750340464e-01 6.1189498620797100e-01 9.3836652952382738e-01  -1.0857185142266270e+00 2.3662674337112723e+00 2.2305204218099622e-01  4.7191705277373391e-01 1.6016876679539607e+00 4.5440924711850617e-01  1.1598536005004194e+00 2.0784107607952658e+00 -2.2368143107969593e-05  4.2409742271021172e-01 2.4781494548533338e+00 -1.8615784833296628e-01  -8.4477544532594706e-01 1.0730347218890370e-07 5.6446287605903500e-01  -4.6352418021384673e-01 2.1258607193156420e+00 1.1149243320803526e-01  1.2051583458569030e-01 2.0971843443535634e+00 -2.5952813668783048e-01  -7.1251171186007733e-01 2.8950042768583355e+00 -6.0193102413430961e-02  -4.4972141758197631e-01 1.9030089973051207e+00 2.3921820129552770e-01  -1.0098406899189094e+00 9.0139927942899500e-01 2.0251722447749490e-01  -9.2882820595937821e-01 1.2483146323660896e+00 5.1536198165095337e-01  -1.6290199496168895e-01 1.7602010785814595e+00 1.7078167091785841e-02  -7.7655480574540847e-01 2.6824315893305117e+00 1.2557040932649427e-01  -1.5905194499863784e-01 1.4976919470023951e+00 2.1503139350539274e-01  -2.7538610092591270e-01 2.3937512953622884e+00 -3.3943105284575181e-01  4.3375334715126507e-01 2.1395007322161566e+00 5.5875061913380437e-02  -6.2494483327210770e-01 1.4102731686723835e+00 6.3764440925946086e-01  8.1776869701582355e-01 6.7267021308203867e-01 6.3599851849720590e-01  -8.5213686933242894e-01 2.3628372723932051e-01 5.6068617854624025e-01  9.9425312012923284e-01 7.3650606857544176e-01 2.5388463986883736e-01  5.5265926256056697e-01 6.1093105703075856e-01 8.6462161824723094e-01  5.1483277434251007e-01 1.2977408822637679e+00 6.5381760925456422e-01  -5.1516569713727722e-01 2.0393436767747261e-01 8.7805386953947073e-01  -2.4798013309684827e-01 2.1128383679420009e+00 -1.7752826848386327e-01  -1.0202036556102680e+00 5.6743878724395269e-01 -1.5182609511278564e-05  -2.3275870819249939e-01 1.2398504988782733e+00 4.6639086207441804e-01  2.5678753824112249e-01 5.8846127579442342e-01 9.4875031514307040e-01  1.0456973323682413e+00 1.4940252822524658e+00 2.8899421643396389e-01  1.0591063136795054e+00 1.3227238619972992e+00 -1.5785602601114162e-05  -7.9206807108023736e-01 2.2015862796767895e+00 3.4887861183876590e-01  8.9256495415301651e-01 1.3956869786776143e+00 5.5131663694038768e-01  -9.9647529223194697e-01 -5.8166939760380778e-07 1.9820672641291476e-01  3.7568803245362586e-01 9.8578343574728100e-01 7.6078042920464339e-01  1.6380039242875571e-01 1.2170039332507918e+00 4.3787565562218767e-01  -1.0934649205773157e+00 1.9265178004045100e+00 2.3800027194224729e-01  2.0202337676045895e-01 1.7327736754004799e+00 6.4317392314448676e-02  1.0202267681237525e+00 5.6741882132660038e-01 -2.7593647947209960e-05  1.1004500801663106e+00 2.0691083721980110e+00 2.2979801428935676e-01  -8.5329909410813753e-01 1.0330613211540733e+00 6.1431221737109543e-01  -1.0220877850721257e+00 1.1429441043382602e+00 2.2747217517495671e-01  -1.0179422601041344e+00 1.8920452597710319e-01 -3.3404562094422250e-05  9.5008866880137832e-01 1.0955452921683930e+00 4.6091244474685056e-01  4.1109995198038457e-01 2.1148065049467371e-01 9.2914900120448374e-01  -1.1589781215011887e+00 2.0785325138598991e+00 -2.9266011607542666e-05  8.5191017235001376e-01 4.7399991967155286e-01 5.7265445699536799e-01  1.0015468494287154e+00 4.5740518631382210e-01 1.9608441817426675e-01  9.2645862467098383e-01 7.2656037251198791e-01 4.5735098644846367e-01  3.3934079242456933e-01 1.1904276465509369e+00 5.9591998848046934e-01  8.4786004633221479e-01 1.7935839656433061e+00 4.8782450860754117e-01  -2.0552590486694004e-03 9.1520981871592955e-01 6.4420530326541869e-01  1.0287518830352727e+00 1.1773753912699634e+00 2.0727281224484656e-01  -1.0031074460128095e+00 4.7304598533922865e-01 1.8814185693941815e-01  5.8351368950751777e-02 6.6258872984615269e-01 8.9323621982331358e-01  -9.4828005441760388e-01 4.9701061075492964e-01 3.8561889676669248e-01  -5.7491376920222925e-01 1.0779166173654309e+00 7.6478182409757833e-01  -8.6037452734779207e-01 2.0179270949148727e+00 4.1626623905152671e-01  -1.1971973925934825e+00 2.8456519182432030e+00 1.6511484611567731e-04  7.7179694748690986e-01 1.0143796262486038e+00 6.9773367544172360e-01  5.6681423036145584e-01 2.6351839894477820e+00 -7.9499899501887225e-02  -4.5566819409653181e-01 1.4397547216615132e+00 5.3703150370575747e-01  6.0595884033894365e-01 1.9853651133131296e+00 3.5949734909163611e-01  6.4680044196537667e-01 1.6370860900509492e+00 5.4559018107622304e-01  -1.8252129295447261e-01 2.5350151742950713e+00 -5.4611909903964784e-01  -6.7121559328059011e-03 2.3316238660487265e+00 -4.7419196169465888e-01  -1.1312939800235176e+00 2.1768357174543698e+00 1.7256645665467349e-01  9.9647629029595641e-01 -5.5941854067870962e-07 1.9820953293013627e-01  7.1184343230651725e-01 2.8942143105302653e+00 -6.2696906582935738e-02  1.9820878469364867e-01 9.3812045311598278e-07 9.9649191049647368e-01  -1.9821611267019007e-01 -4.2830573362950370e-07 9.9648288574750798e-01  5.6445634706422432e-01 2.0152334243630291e-07 8.4477639107026214e-01  1.8010223022728966e-01 2.5346581851651169e+00 -5.4704039528351989e-01  8.4477852259124786e-01 -1.9463783903276527e-07 5.6446221734177249e-01  1.0486433430344111e+00 3.0247379915395047e+00 1.0607549848690150e-01  -4.5487438398436442e-01 2.7124473690628346e+00 -3.0799665420398348e-01  -5.6446340570841680e-01 -5.9702606611916723e-07 8.4477248337528588e-01  -7.0214854097278082e-02 2.0446514231175268e+00 -2.3796956534595959e-01  8.7020744896303570e-01 2.7812067966157197e+00 1.3189025378836147e-01  4.5446329703246119e-01 2.3435752336175577e+00 -4.9296052086665008e-02  5.7821603797173482e-01 2.3138094792948776e+00 1.4734925782825417e-01  7.1674623665028625e-01 2.5523921117132917e+00 1.4687166672893540e-01  3.2915722721382695e-01 1.5103934616927355e+00 3.5524972469429733e-01  -6.5107528846506268e-01 2.7155634200352359e+00 -1.9453897645193480e-02  -3.3260335234969324e-01 1.8845313313281417e-01 9.5817816902686437e-01  -1.1171942126573464e+00 2.5643526785231483e+00 1.6775698111494791e-01  -9.2192213062506678e-01 1.6461145299143969e+00 4.8637713687281570e-01  -1.0682256725034087e+00 1.5345636342506961e+00 2.1143625467946042e-01  -1.1105412663142495e+00 1.6993240522614137e+00 -2.5236423668236399e-05  -7.3854856168471228e-01 1.6370071956211094e+00 5.5836522110959108e-01  -5.7224399661027014e-01 3.9114565811141255e-01 8.4836926785432232e-01  1.1979730166965450e+00 2.8455652218107055e+00 -7.7845394501234853e-07  -1.0273399081341941e+00 9.4558544687202384e-01 -1.7064910939883171e-05  1.0179346996697904e+00 1.8919877791202691e-01 -2.9293576385568779e-05  1.1112769067904453e+00 1.6991998282432825e+00 -1.6470826298841551e-05  1.0274602385496960e+00 9.4555171161703067e-01 -4.7554025528561591e-05  -1.0586459739429319e+00 1.3227967652499593e+00 -2.8821285972791709e-05  1.1905731752073709e+00 2.4611265659869890e+00 -3.8398147735975926e-05  -1.1897758538643703e+00 2.4612472514905570e+00 7.2028223685997387e-05  7.4193600504568746e-01 2.8721342254363880e-01 7.0267711354905904e-01  -9.8447968658081086e-01 1.8760982153364985e+00 3.9224308297603505e-01  -7.9000387732856914e-01 6.3571822543828349e-01 6.6800825852941748e-01  -3.0183288154673371e-01 1.1117393583239013e+00 6.2205781107165203e-01  -6.3756027700451479e-01 1.8533933269426761e+00 4.4577033820072060e-01  -4.0429401640203672e-01 1.6218878621278709e+00 3.6683518059721698e-01  -5.1139098567376207e-01 2.3027536504728645e+00 6.6214982452155124e-02  5.2261899748686758e-01 8.9514926521528571e-01 8.3073929710430749e-01  1.7919169396466075e-01 1.9667285052771186e+00 -1.2754427722793282e-01  4.5780180012689170e-01 1.7520031274834242e+00 3.4674301862004586e-01  9.5406315410215881e-01 2.4408094514554692e+00 2.6785252557715411e-01  1.1287326121520396e+00 2.2472778858990732e+00 1.7928198534202910e-01  1.1104252234203826e+00 1.8871825705863630e+00 1.8745638381417570e-01  -2.2049930273654086e-01 9.5835667969333149e-01 6.8316750265061177e-01  6.8612717006571611e-01 1.2457066628186630e+00 6.9492644680792870e-01  4.9810443575694124e-01 1.4547206012935210e+00 5.6079190886995933e-01  -2.0762837194168907e-01 4.3658196979590269e-01 9.8016513337127287e-01  -1.0083685892034311e+00 1.5168442437123262e+00 3.8813536461384940e-01  -9.4010381040363067e-01 2.3024217060653243e+00 3.1285033131682377e-01  -1.0092329756559837e+00 6.5026404324999210e-01 1.6223977580907600e-01  4.1480226277852757e-02 1.7525691556940473e+00 -2.1035881868097749e-02  5.7759908518337644e-01 4.3573298424346202e-01 8.4642853700428100e-01  2.4166932345388206e-01 4.1220866590642607e-01 9.7629842011937074e-01  1.0671924048611243e+00 2.6418527816428186e+00 1.8569540773286244e-01  7.3770003587105337e-01 2.2242758128131679e+00 3.2081514273902478e-01  -4.8629447863421432e-01 2.4281124492949999e+00 -5.5894362867169388e-02  -4.9327528473962218e-01 1.7891942830522176e+00 3.6545426193056618e-01  9.7840431427300678e-01 2.0704561688597916e+00 3.5648484574551265e-01  -5.2360547829977382e-03 1.1496301900148673e+00 4.4662692936231058e-01  3.2298990985001902e-01 2.0795851694411764e+00 -6.6071332362226384e-02  3.3791567370951880e-01 1.8130489549823710e+00 1.4541695516228439e-01  1.8724913362699873e-02 1.7996878073359202e-01 1.0082333161331958e+00  -7.1529644512007418e-01 2.5249781969744660e+00 1.6277905494530825e-01  1.7345149664786758e-01 1.5878300723477490e+00 1.5471197660407365e-01  3.1171716170746566e-01 2.3625506928626869e+00 -2.7271740488099228e-01  -3.1863192787154898e-01 5.6916900726060793e-01 9.4690882680889887e-01  -4.9314063926941237e-01 5.6746174048404807e-01 8.9498509397371806e-01  6.0261101319160397e-02 2.2124352381776959e+00 -3.7086423401990998e-01  -1.7615794720117881e-01 1.9612410601804984e+00 -1.2582034401732015e-01  -9.0248503495281973e-01 6.3611574927643022e-01 4.9753381143292896e-01  -9.6890272066754535e-01 8.6290026456268365e-01 3.6612550375846858e-01  -3.5674676568998692e-01 2.1157179341158905e+00 -4.5267590137942959e-02  -3.0261617241590916e-01 1.8215040143346632e+00 9.4713727641064130e-02  -1.0086005930266466e+00 2.8381842870716356e-01 1.4515729693669494e-01  7.8725663603326945e-01 1.3596690822930294e-01 6.4525471957815883e-01  -6.4335295925789360e-01 1.3901291420817749e-01 7.8868787298134424e-01  -1.1026885536389197e+00 1.7625434696727784e+00 1.6880220457784811e-01  1.0517215145146024e+00 1.3522255152318863e+00 1.7949222613870036e-01  -4.8909661283750722e-01 8.6952419658342261e-01 8.4319046487694027e-01  -5.9986260582605211e-01 7.3535044117064441e-01 8.3411870965268298e-01  6.9372683992065982e-03 1.4740146988425680e+00 1.8957134905974218e-01  -9.7373221745433869e-01 1.3957389148137972e-01 2.9527156547487177e-01  -5.4275995902031582e-01 2.6162974042151395e+00 -1.0025276709465646e-01  1.0169218387973362e+00 8.5123264054386760e-01 1.3650762387330145e-01  -1.7368733146168858e-01 1.6323121146028698e+00 1.2068458053880202e-01  6.8914002810405550e-01 6.3584005528505794e-01 7.7097217246053917e-01  -9.1125715190950995e-01 3.5602858137768317e-01 4.6260486731778017e-01  2.1648815648870592e-01 2.2281611206687630e+00 -2.8969881509799078e-01  8.0586248295901886e-01 1.5794699573261672e+00 5.6410916703639935e-01  4.5799897079855129e-01 1.1538028340139319e+00 7.0304075811835809e-01  -2.9994498685510573e-01 2.2681671639599439e+00 -2.2649831941527437e-01  7.3948507433156507e-01 1.9366127642033992e+00 4.4308461514950237e-01  9.8315672626419237e-01 1.7443303046808878e+00 4.1350374105788240e-01  -7.4547474823716586e-01 4.5699394109536412e-01 7.0687887254056059e-01  2.0787618718322881e-01 7.2264440073738123e-01 8.7490852957367904e-01  -5.2544327363870114e-01 2.0504109220233562e+00 2.4540024964063786e-01  -5.6837976334517415e-01 1.2279428723163401e+00 7.0455918872032708e-01  -7.2998200870823249e-01 1.0368470507539995e+00 7.2578481538942441e-01  -7.7246466597431929e-01 1.3464894083508729e+00 6.4100870541612365e-01  9.5045729731931639e-01 9.3857341993587085e-01 4.3171320859068640e-01  -9.8802179783491506e-01 1.1810457647155765e+00 3.8138610621640590e-01  8.9746442973490759e-01 1.2527223937992960e-01 4.7942160515987881e-01  9.1625702356367644e-01 3.8455371343616929e-01 4.5379652506390761e-01  -5.7650851479786436e-01 1.5424084313202031e+00 5.6308065923202755e-01  9.8429951626073120e-01 1.4469062146072764e+00 4.2996204168365032e-01  -7.8709