<?xml version="1.0"?>
<VTKFile type="UnstructuredGrid"  version="0.1"  >
<UnstructuredGrid>
<Piece  NumberOfPoints="758" NumberOfCells="1386">
<Points>
<DataArray  type="Float64"  NumberOfComponents="3"  format="ascii">-1.570796326794897 3.048 0  -1.570796326794897 0 0  1.570796326794897 0 0  1.570796326794897 3.048 0  0 0 0  0 3.048 0  -1.570796326794897 1.524 0  1.570796326794897 1.524 0  -0.04609926118424437 1.524 0  0.7853981633974483 0 0  0.7623485328053261 2.262242601661362 0  -0.7853981633974483 0 0  -0.7853981633974483 3.048 0  0.392699081698724 0.7745759241961347 0  -1.570796326794897 0.762 0  -0.8084477939895706 2.0955 0  -0.68277245543452 0.8915343570675713 0  0.7853981633974483 3.048 0  0.778743707341909 1.468410948960538 0  2.780093748954961e-16 2.285302774973185 0  -1.570796326794897 2.286 0  1.570796326794897 0.762 0  1.570796326794897 2.286 0  -0.9375370967763674 1.47348297960658 0  0.9831575747762593 0.9003629142671278 0  -0.3926990816987241 0.4064697549061488 0  1.177419588818055 1.905 0  0.3692901340097942 1.880893989147954 0  -0.4920225169641509 2.564371687128368 0  0.3926990816987241 3.048 0  1.178097245096172 0 0  1.155705348811136 2.643920532523289 0  -1.178097245096172 3.048 0  -1.178097245096172 0 0  -0.1391296372266528 0.8873724190154949 0  -1.10527745318919 2.528282743051346 0  -0.9817477042468103 0.4742759268549471 0  -0.3416666987802651 1.923944646262223 0  -1.570796326794897 1.905 0  -1.156555306160469 1.030861936336814 0  0.7648449098493205 0.4764142032227 0  0.3926990816987241 0 0  -0.4820376416180818 1.326151321396512 0  0.06374421723344185 0.4545169930886408 0  0.1972735722393064 1.163324878565267 0  0.3900417218314142 2.566922767651637 0  1.570796326794897 0.381 0  1.188877612935585 1.295195418509834 0  1.179914028402171 0.5308585702661928 0  0.7660075594126428 1.865233039449035 0  0.6330293131838399 1.095171663968746 0  -1.201232463242587 2.144287146570887 0  -0.3926990816987241 0 0  -0.3926990816987241 3.048 0  1.178097245096172 3.048 0  0.7684409382397209 2.649499271873753 0  -1.236954997304436 1.7145 0  -0.1088573452899617 2.666651387486592 0  -1.570796326794897 1.143 0  -1.570796326794897 0.381 0  1.570796326794897 1.143 0  1.570796326794897 1.905 0  1.570796326794897 2.667 0  -1.570796326794897 2.667 0  -0.6730839067294777 1.743003792473746 0  1.199831389396789 2.275437921225198 0  0.3936837537618041 1.495643752599615 0  0.01539369169800942 1.928544709491661 0  0.4156551272669651 0.4219033286010089 0  0.3401546043708642 2.225103550856524 0  -0.3379897306391274 2.262671266279809 0  -1.23624174049596 0.7000907110925838 0  -1.265224057170889 1.360131453617764 0  -0.1224339018241312 1.210043725539656 0  1.289286200625578 0.9918698881707442 0  -0.7751142346211329 1.197848666814478 0  1.003546186550495 0.2660297686099683 0  0.1963495408493621 2.808538634159524 0  -0.8079023568959116 2.703551618159924 0  -0.3480226984353056 1.610059855391589 0  1.075147893506229 1.598068412087719 0  -0.8290627893979112 2.399544545867518 0  0.6965048925255637 0.7972100472372819 0  -1.257765094876752 0.3107645483825858 0  -0.6724835324263325 0.5684215760013651 0  -0.3995059642389676 0.7173610149075536 0  0.9136951972244611 1.187564504803626 0  -0.964259350608907 0.8095514380783081 0  -0.7565990314517038 0.2897049735129544 0  -0.9603859887840651 1.834914433810327 0  -0.1457055965762301 0.2521630699436873 0  0.1963495408493621 0.2041911848053476 0  0.6241974196550791 0.231695999252114 0  -0.4098815011312292 1.029160072548571 0  0.9592800715482012 2.452820690856482 0  0.9648684169153161 2.840751931000357 0  0.5890486225480862 3.048 0  0.164631037784102 1.698913854044779 0  0.5664480837073581 2.070920238540226 0  1.374107957806476 1.7145 0  0.9861079629544779 2.102471438422718 0  -1.374446785945534 3.048 0  -1.288827800789186 2.762781313597598 0  1.353232957571468 2.835634774483438 0  1.302158670506274 0.2650078124691045 0  0.1394669809465775 0.8907702620243092 0  -0.5631487221059602 2.830992231257464 0  1.372837635547072 2.483038902756259 0  -0.1493395228831287 0.618617259260858 0  -1.32327048447753 2.378769394323546 0  0.56080204725298 1.699622905297025 0  1.570796326794897 2.0955 0  0.5403456747786348 2.786446773498672 0  -0.9817477042468103 0 0  -0.5847039960246873 2.326882432521036 0  0.1225428891326576 2.526494255738436 0  -0.9817477042468103 3.048 0  -0.5522901559753841 2.071668786267058 0  -1.370864794258017 0.9075071715671403 0  -1.043891045637083 1.250611220450313 0  -0.1652643923634778 2.09141301924679 0  -1.044446740946883 2.764982067459552 0  -0.1610370079820225 1.763280243096074 0  -0.3136912237752232 2.810498886211121 0  0.5400974078002052 2.370472734822523 0  -0.7009161718414544 1.427243880175582 0  0.902907438200502 0.6735032943420574 0  -0.9879196222361604 0.2371379634274736 0  1.319268546233604 0.7412771512308228 0  0.5578373583610097 0.608241627784878 0  0.5756483102040615 1.332636919938113 0  -0.5281701577409 0.2032348774530744 0  -0.266729509930448 2.489223923247521 0  -1.570796326794897 0.5715 0  -0.2430656531629531 1.405631921096758 0  0.253622337931223 0.5884397663452474 0  1.284044721043478 1.50372037617638 0  1.570796326794897 1.3335 0  -0.9904333867980613 2.235882060371517 0  0.9871146764618406 1.395690276854986 0  -1.374446785945534 0 0  0.3981951765262902 1.020833864419675 0  0.1670583512016766 1.405384478716078 0  -1.330327693484763 1.938638984813805 0  0.2106653067452682 2.040805097078886 0  1.570796326794897 0.5715 0  1.334822181490566 2.081373939821734 0  -0.9303227889097604 1.033236710715967 0  -1.34639228476592 1.150776798768373 0  -1.570796326794897 0.1905 0  1.106697207481837 1.099709897393925 0  0.4137866939027022 0.2104288000383385 0  -1.570796326794897 2.0955 0  0.9761377489246634 0.4754251272674608 0  1.377108465632662 0.4605024587280874 0  1.108114944719677 0.7297638044096917 0  0.3695908229138113 1.285681859811955 0  0.9799112840676307 1.800306505551499 0  -0.001696842075803034 1.042028929293442 0  1.366537356420357 1.185723700290463 0  -1.385029840108318 0.47625 0  0.05842649915411911 0.6874537157920781 0  -1.183268988745763 0.4997334438341218 0  -0.6073502281622543 1.081347079085406 0  -1.026941765261019 2.031536576622642 0  -1.570796326794897 2.8575 0  0.8159726599830506 1.011928543199529 0  0.7652782693277244 2.849245002237192 0  -0.5252326280373281 1.520125074885265 0  0.7648326174724897 2.063743853392348 0  0.757099741434616 1.666331708950521 0  -0.1963495408493621 3.048 0  -0.005410422648647092 2.843333256403111 0  -1.395368347654653 2.19075 0  1.374446785945534 0 0  0.9817477042468103 3.048 0  0.1963495408493621 0 0  -0.1963495408493621 0 0  0.5890486225480862 0 0  0.1963495408493621 3.048 0  0.9817477042468103 0 0  1.374446785945534 3.048 0  -0.5890486225480862 3.048 0  -0.5890486225480862 0 0  -0.06865319188571758 2.471928549109083 0  1.159049337209348 2.838090892449816 0  0.5817075150535711 2.596909954318943 0  0.7656515661107315 2.455866896253367 0  0.9620790410056582 2.647119292933887 0  0.3676829480103987 1.68739481709134 0  -0.8886101495223063 2.878912500124773 0  -0.3317793704126089 0.1873756770788371 0  -1.383208664444332 2.577695923010364 0  -1.043597917648523 1.648216005744782 0  -1.362178343413552 1.546177620526679 0  -1.570796326794897 1.7145 0  -0.8462722504471433 1.648434957877788 0  -0.588076822054871 0.3899352838051667 0  1.570796326794897 2.8575 0  -1.570796326794897 0.9525 0  1.570796326794897 0.1905 0  1.570796326794897 1.7145 0  1.570796326794897 0.9525 0  -1.570796326794897 1.3335 0  1.570796326794897 2.4765 0  -1.570796326794897 2.4765 0  0.8103777117362174 0.287468585434799 0  -1.145334531235929 1.881885620422454 0  -0.8620560674467429 0.6361265362229395 0  -0.321688879263093 1.207848147265888 0  -0.7798551871678058 1.904240998338365 0  -0.4724954359209014 1.769587110195458 0  -0.667402576232105 2.495985359319255 0  0.5365063314111709 0.8945566719544227 0  0.1855702280441107 2.342745654422604 0  0.55510120733165 1.88540118775351 0  1.188295809121239 2.460939894898248 0  1.38587897409014 2.260870763688798 0  1.383978812419919 1.901097375082534 0  -0.2265735189171196 1.049795314962436 0  0.7387890113368257 1.246392780742437 0  0.5763234466275948 1.516457524623135 0  -0.203279258075353 0.4348372558382012 0  -1.179202350299698 1.523245956950107 0  -1.151844216720993 2.318990544544152 0  -1.410806081599612 0.6547540757597369 0  0.04190096621848406 2.108399609871347 0  0.5925649981629265 0.4343292987553075 0  0.2371113691258682 0.4102816185532077 0  1.334103818253725 2.657728219912091 0  0.9405077369493808 2.275181409651143 0  -0.633962040105568 2.669303984283053 0  -0.6045614816381242 1.904349918307267 0  1.159697673803787 2.079238591118184 0  -0.004643801590645341 1.347662554528907 0  0.3691400131247499 2.395423267764724 0  0.3855005143298051 2.055603978165229 0  0.01839821075864462 0.1788084577298442 0  -0.9568120219060965 2.61629404172056 0  0.1783135820912846 1.871116340262054 0  0.3649950158263953 2.745288921627024 0  -0.3142054567155264 0.5671999812317062 0  -0.4933549623779417 0.564740705097546 0  0.06092775470575962 2.685867440722903 0  -0.1801827362748675 2.337517890002858 0  -1.063355415037434 0.6386189748554 0  -1.205242865599393 0.8676070232612285 0  -0.4176020549597784 2.412196127179313 0  -0.3347051678178828 2.093252344225509 0  -1.427772711006951 0.2857500000000001 0  0.8835729338221293 0.1362887052191026 0  -0.6831011505337878 0.1389086130988801 0  -1.403875662049666 1.77648180985222 0  1.394165436236593 1.362588987767805 0  -0.5007942298153729 0.8700626692351643 0  -0.6093220848169366 0.7321530406295067 0  0.007534593095922887 1.760126887057542 0  -1.276272015520854 0.140425968067263 0  -0.7270478511000733 2.847016806985676 0  1.436331331726002 0.85725 0  -0.1770320080670663 1.927167796173981 0  0.7200726153501196 0.6345534912379586 0  -1.099983122078282 0.3577316115390257 0  0.2324759135153202 2.648405702327079 0  0.9054371869972004 1.582409569434113 0  0.5000672234640285 1.188708149930449 0  -0.340793734207542
[...]
<PointData  Vectors="phi"> 
<DataArray  type="Float64"  Name="phi"  NumberOfComponents="3" format="ascii">-1.2581586383535766e+00 3.0129428371231834e+00 4.9736202976467292e-05  -1.0160127529165743e+00 -2.8877959160865578e-08 -9.0343417411731375e-06  1.0160127889507347e+00 -4.0972622665694156e-08 -1.0849741769613615e-05  1.2582855390694678e+00 3.0129155196260213e+00 3.7962533520085194e-05  -5.8510137404166325e-06 1.1136865212307230e-07 1.0160209918041139e+00  -1.0155330657872369e-04 2.7157041565717646e+00 -7.7467250727662321e-02  -1.0566520161243682e+00 1.5092894852968888e+00 -1.7570784807928584e-05  1.0567575703065974e+00 1.5092692319219658e+00 -2.5440862460979625e-05  -4.6551002191395879e-02 1.5191641945962449e+00 8.6739834354026646e-01  7.1842707655841831e-01 -1.0431998052014028e-07 7.1841683195145956e-01  7.1591659647748451e-01 2.2553993991456838e+00 6.0974638586590235e-01  -7.1842441481328856e-01 -3.9643757097482549e-07 7.1841903269465235e-01  -6.6627182246441607e-01 2.9684387075827576e+00 2.8285897572283031e-01  3.9328884138705744e-01 7.7978614900097443e-01 9.1674581391287890e-01  -1.0249873040242237e+00 7.5476028930731631e-01 -2.1335403038139878e-05  -7.7619944660451667e-01 2.0963176770430105e+00 6.4476536681250585e-01  -6.5914557457270184e-01 8.9262670869752547e-01 7.8659023631255287e-01  6.6626537923411022e-01 2.9682461859967568e+00 2.8218293920640652e-01  7.5282288361262717e-01 1.4692303357191765e+00 7.1778128466030511e-01  -1.2139838238659689e-04 2.1127527023004999e+00 3.9129973523014439e-01  -1.1399314723980558e+00 2.2610927009112922e+00 -1.7973424664473124e-05  1.0250091562763080e+00 7.5475185384554200e-01 -3.0629514714857034e-05  1.1400856620905011e+00 2.2610674048164405e+00 -5.0918154258793025e-05  -8.6665506992482422e-01 1.4694049204523072e+00 6.0383895434859214e-01  8.6989567388870415e-01 8.9597476957020050e-01 5.6821399867266376e-01  -3.9067167924388191e-01 4.0943016376023023e-01 9.3022134522270705e-01  1.0195750590792336e+00 1.8920343957664034e+00 3.9183938994575385e-01  3.5854755806709709e-01 1.8507811379846943e+00 7.1540901238948440e-01  -4.4386479764457276e-01 2.4583940852304469e+00 3.9439046763283347e-01  3.5263186149728792e-01 2.8262853107396024e+00 7.7202863172835423e-02  9.3865688554389348e-01 -4.3006377598653065e-07 3.8880533040432380e-01  1.0499216760711310e+00 2.6300360957488040e+00 3.8205160515239350e-01  -1.0484546805995494e+00 3.0290933543754428e+00 3.1355287162026318e-01  -9.3865639407678791e-01 -3.5115302000339783e-07 3.8881430127423955e-01  -1.4112434911367061e-01 8.9490681833972208e-01 9.5658447348148079e-01  -1.0139231407289930e+00 2.5174447755662928e+00 4.2804475467243508e-01  -8.5479439334388485e-01 4.7160423320457201e-01 5.6754079196030338e-01  -3.3149224095547125e-01 1.8801772539173514e+00 6.8333032037541919e-01  -1.0885213139072309e+00 1.8859615579899989e+00 -2.3838314643536463e-05  -9.5638736461212770e-01 1.0234490171185513e+00 4.1228654886351723e-01  7.1307885325890941e-01 4.7571702182443343e-01 7.3578066636759187e-01  3.8881368017718243e-01 8.2382188076918206e-07 9.3866726130303191e-01  -4.8543528044197232e-01 1.3327176520142352e+00 8.6486188161467914e-01  6.4523715420902336e-02 4.5953135074806162e-01 9.8995629928125539e-01  2.0083471960396834e-01 1.1713368267620496e+00 9.3395427468436221e-01  3.5977638444187560e-01 2.4256311639186889e+00 3.4326620022590354e-01  1.0209529254741789e+00 3.7738550082777278e-01 -1.9602228973945049e-05  9.8027753500371850e-01 1.2857027284835074e+00 3.8162189533026220e-01  9.4885109242502341e-01 5.2663833812233118e-01 3.8901261945082011e-01  7.4791738097956939e-01 1.8683738803400094e+00 7.0062778508743162e-01  6.2081996478718038e-01 1.0979985514325354e+00 8.0953915019462441e-01  -1.0518269938222158e+00 2.1291016058112562e+00 3.6769989506953576e-01  -3.8880203230160304e-01 -1.5906073310584583e-07 9.3865669686055597e-01  -3.5276736316084678e-01 2.8264554256988825e+00 7.7624926133795916e-02  1.0485397401018541e+00 3.0290201542496851e+00 3.1345209686982811e-01  6.8318360518957533e-01 2.6116734437393396e+00 4.6008897804511628e-01  -1.0227866837835049e+00 1.7012763607543999e+00 3.3510171778700598e-01  -1.0930069937371496e-01 2.4291696918480210e+00 1.7722365999176726e-01  -1.0366791529256567e+00 1.1320890480473698e+00 -2.5239551928911947e-05  -1.0209609920045950e+00 3.7738943205582914e-01 -2.4560595777056912e-05  1.0367480438966099e+00 1.1320740705859098e+00 -1.1557381317805198e-05  1.0886606757177959e+00 1.8859318448567568e+00 -4.8960427208278815e-05  1.2017723403672995e+00 2.6360188229648114e+00 -3.3577361068681756e-05  -1.2014706314426007e+00 2.6360798379145103e+00 -9.9318794558552732e-06  -6.6568560907067864e-01 1.7480150247156965e+00 7.5682239192878986e-01  1.0631476859148794e+00 2.2597738004966814e+00 3.6670678296299219e-01  3.9854104110299243e-01 1.5025574445357022e+00 8.7060188050272169e-01  1.5508627904769423e-02 1.8292512498911280e+00 6.0861932858441592e-01  4.1258888381597852e-01 4.2477535907826641e-01 9.2169456331214206e-01  3.2375884717078235e-01 2.1270739901607540e+00 5.1242417877475910e-01  -3.2162450001976695e-01 2.1570355637086207e+00 4.9001866398974392e-01  -9.7225082768802507e-01 6.9429634306873189e-01 3.3539291348034900e-01  -1.0071850509190592e+00 1.3490758845834696e+00 3.0761518354415646e-01  -1.2501843128394230e-01 1.2181000120605798e+00 9.3753228613022277e-01  9.9656274920172583e-01 9.8342259647215202e-01 2.8384788184165238e-01  -7.4115176071337774e-01 1.1977716387891233e+00 7.2482061802618192e-01  8.6162899660731085e-01 2.6439180940266105e-01 5.4762882134069102e-01  1.9057426104739267e-01 2.5642728953249692e+00 1.2143614289712479e-01  -7.1627708920235822e-01 2.6684082217764065e+00 4.4610955403050845e-01  -3.4879977229371867e-01 1.6113221919833813e+00 8.4273966135445433e-01  9.5080036096789056e-01 1.5896645051547047e+00 4.8671315906229817e-01  -7.6914240414057111e-01 2.3906725867350320e+00 5.6076038046520060e-01  6.6823191697692053e-01 7.9781266575005716e-01 7.7954040843083161e-01  -9.7166252414813459e-01 3.0809289412175744e-01 3.1390337358472387e-01  -6.4325034083046928e-01 5.6891482428866469e-01 7.9572358230460305e-01  -3.9950669144539536e-01 7.2218166277581552e-01 9.1722973837396737e-01  8.3926611316547783e-01 1.1840628715709400e+00 6.2463984418772867e-01  -8.5581529606039997e-01 8.0571760860334996e-01 5.8395951572464733e-01  -7.0229177885493632e-01 2.8923716875132421e-01 7.4055388760566410e-01  -9.0067348499162558e-01 1.8306205913554816e+00 5.8061463301293026e-01  -1.4723050062671839e-01 2.5503378721142878e-01 9.9428468223032085e-01  1.9796598349761652e-01 2.0643700693386660e-01 9.8888194261234796e-01  5.9653875059926176e-01 2.3205110426355691e-01 8.2471910211514154e-01  -4.1192180876366619e-01 1.0353481931019985e+00 9.0008123669367701e-01  8.9180940471792169e-01 2.4468716129983159e+00 5.1586726391763837e-01  8.5788864609191917e-01 2.8185818003961622e+00 4.0854152479259526e-01  5.0478661923049362e-01 2.9007674196878850e+00 1.8474613658714459e-01  1.6421962155636369e-01 1.6674005420211730e+00 7.7386418953971325e-01  5.3757887340238097e-01 2.0541135357664477e+00 6.7022505049117009e-01  1.0547292531816452e+00 1.6989144156524505e+00 1.9933633763039499e-01  9.2732899455100248e-01 2.0978810722215879e+00 5.4849470835961578e-01  -1.2012170745942881e+00 3.0202556706644668e+00 1.8832267188580193e-01  -1.1391910440746509e+00 2.7407621031159408e+00 2.7154681153902860e-01  1.1767236858771835e+00 2.8095943443318974e+00 2.1268493923508747e-01  9.8379796310561407e-01 2.6267139218525964e-01 2.7046891489699770e-01  1.4141683884457226e-01 8.9831723779897743e-01 9.5627422995854294e-01  -4.9163940547264223e-01 2.7083307093418321e+00 2.8750093724813397e-01  1.1472187741354076e+00 2.4582978638978918e+00 1.9947896914787855e-01  -1.5109501409962883e-01 6.2469730488407726e-01 9.7323338812452231e-01  -1.1200942041736788e+00 2.3568746595346322e+00 2.4874497996172232e-01  5.5849051311929432e-01 1.7051685188458996e+00 7.9781471386598735e-01  1.1121444535723937e+00 2.0736845844684413e+00 -2.1251079098199213e-05  4.7474181731086740e-01 2.6626318255649331e+00 2.9942529799908602e-01  -8.4477535674465087e-01 -2.9677053093799312e-08 5.6446273940824732e-01  -5.3631440865693991e-01 2.2837607049474986e+00 5.5621500709112004e-01  1.2250475933939989e-01 2.3176227771670361e+00 2.6231832050401821e-01  -8.5211035460854889e-01 3.0146443360656838e+00 3.3973062201224380e-01  -5.2382584499832141e-01 2.0522451279215748e+00 6.6729487024000900e-01  -1.0109753130965353e+00 8.9930846125483044e-01 2.0260047499632861e-01  -9.1644584436631560e-01 1.2440544936138718e+00 5.1541941205741038e-01  -1.6472224026743643e-01 1.9740541570971910e+00 5.2987505946731195e-01  -9.4522907326299688e-01 2.7515809294638518e+00 4.1788084262850617e-01  -1.6082753428600266e-01 1.7162521442972993e+00 7.3212287987546942e-01  -2.9207873628749875e-01 2.6021906248659219e+00 1.7122195271258631e-01  4.9302055908087922e-01 2.3094932451526584e+00 5.1810761838300234e-01  -6.8752066508281262e-01 1.4300469000320650e+00 7.6514220265526678e-01  8.1411613399104366e-01 6.7087124260852016e-01 6.3363595790779847e-01  -8.5232446310596122e-01 2.3572985874246932e-01 5.6076071182352738e-01  9.9581786967561103e-01 7.3473831873918971e-01 2.5398193513576212e-01  5.4588815481968544e-01 6.1045971408639466e-01 8.5767553165081245e-01  5.7382991487930646e-01 1.3377603285704198e+00 8.2926730938720272e-01  -5.1359217861735729e-01 2.0404180297169386e-01 8.7664597331935890e-01  -2.5681777653915450e-01 2.3213590288922283e+00 3.3091834535936471e-01  -1.0221935209180482e+00 5.6607050598800157e-01 -1.5300358544906221e-05  -2.4765976143639412e-01 1.4125310415732850e+00 9.0544734420814310e-01  2.5555542998187331e-01 5.9378019850355157e-01 9.5956068552253426e-01  1.0206456092584797e+00 1.4912638102801459e+00 2.8905407509222131e-01  1.0457026927842108e+00 1.3206940898940673e+00 -1.4921313978364082e-05  -9.3018897035417991e-01 2.2312299060940779e+00 5.3381184085613465e-01  8.9276089668676828e-01 1.3901998798061896e+00 5.6380347336734460e-01  -9.9647424711101773e-01 -6.8533666457235164e-07 1.9820656863769204e-01  4.0040326212041760e-01 1.0271291405635987e+00 9.0363746892828178e-01  1.7023906948193931e-01 1.4115177670980223e+00 9.1027327774550260e-01  -1.0680829241647465e+00 1.9213887705698676e+00 2.4319334008610827e-01  2.0788597290238672e-01 1.9432381760030508e+00 5.7294259318516738e-01  1.0222030722899254e+00 5.6606315311533928e-01 -2.7281646196380756e-05  1.0858797404300109e+00 2.0623631524680164e+00 2.3864231803796612e-01  -8.4389381111524553e-01 1.0294814313831815e+00 6.1204235848442889e-01  -1.0156387452633266e+00 1.1405931798363242e+00 2.2718175461176435e-01  -1.0189415553759629e+00 1.8873227165254955e-01 -3.3243975857656659e-05  9.3911758988316241e-01 1.0926064657447498e+00 4.5884068300034359e-01  4.0926745950302457e-01 2.1187730638887967e-01 9.2711753658328522e-01  -1.1118994477775088e+00 2.0737292658467550e+00 -3.1769910074509839e-05  8.5169116693949065e-01 4.7278863121413278e-01 5.7230892446616632e-01  1.0031515393507222e+00 4.5627694039859301e-01 1.9621474912248377e-01  9.2549073317254316e-01 7.2466669581184007e-01 4.5674095149837229e-01  3.7481845309445233e-01 1.2931716442004761e+00 8.9796745939837563e-01  9.1140030773418068e-01 1.7951054800587558e+00 5.6607006096153523e-01  -1.7514089096275901e-03 1.0501678684680804e+00 9.5203227366665844e-01  1.0209646288705532e+00 1.1750777701928210e+00 2.0701613293689916e-01  -1.0047624791977643e+00 4.7187307962040825e-01 1.8826873167244595e-01  5.9205712412714384e-02 6.9420176595136918e-01 9.7517807658946876e-01  -9.4942031303159591e-01 4.9573666231547053e-01 3.8575433910659995e-01  -5.9788118141772140e-01 1.0846270522694590e+00 8.2275384342416202e-01  -9.5308514083522311e-01 2.0247235544178519e+00 5.2187942956198397e-01  -1.2304807619930744e+00 2.8243658980263566e+00 8.6502150421648563e-06  7.6630580596133613e-01 1.0105513166405433e+00 6.9902661459650905e-01  6.6338122499226548e-01 2.7877859703163499e+00 3.6771270093216230e-01  -5.2831024241762314e-01 1.5268676567057449e+00 8.3658736045581639e-01  7.3631670254648030e-01 2.0648072125132551e+00 6.6500508023068317e-01  7.4088371952738130e-01 1.6689390048356463e+00 7.2368763749682785e-01  -1.9010057202279518e-01 2.7577282045420217e+00 -1.9456405802769586e-02  -5.6229409507388729e-03 2.5628770892689401e+00 6.0714598028363036e-02  -1.1115300554860112e+00 2.1690847603375225e+00 1.7798010459601449e-01  9.9647555183799486e-01 -7.6658485631693147e-07 1.9820955761677694e-01  8.5203305242693184e-01 3.0145615922530897e+00 3.3927590049611284e-01  1.9820818922555983e-01 1.6688534410021398e-06 9.9649208375454157e-01  -1.9821661886022912e-01 6.0651240160251595e-07 9.9648273352686179e-01  5.6445640266229846e-01 1.3459029914994475e-07 8.4477748038563505e-01  1.8986435423533335e-01 2.7576049603762747e+00 -1.9766828265923117e-02  8.4477849132057081e-01 -8.9239238132260528e-08 5.6446224934514755e-01  1.2014060485575586e+00 3.0202833915640612e+00 1.8828758288053016e-01  -5.0482380126647830e-01 2.9009040808030377e+00 1.8523605466374674e-01  -5.6446321527599941e-01 -5.0201314863959764e-08 8.4477004483274420e-01  -6.9509491443903643e-02 2.2663916283492265e+00 2.8487219181480905e-01  1.0448351072220863e+00 2.8224560569846777e+00 3.5535307941936750e-01  5.1740478142587509e-01 2.5155994259351782e+00 4.1894648971653375e-01  6.9942149276522536e-01 2.4358764799065451e+00 5.4013898054027021e-01  8.7623326207724861e-01 2.6350840289107782e+00 4.6820611634688952e-01  3.6504916067334897e-01 1.6835251441034402e+00 8.1200571446433467e-01  -7.7771784326870452e-01 2.8425477620819519e+00 3.8859610612576739e-01  -3.3110077088798506e-01 1.8900790344529006e-01 9.5635839784052568e-01  -1.1618851377167954e+00 2.5517010046699271e+00 1.8864418360426866e-01  -9.3814406684514451e-01 1.6406708095419293e+00 5.1438490220554012e-01  -1.0400354813853150e+00 1.5323652969702464e+00 2.1134207812828190e-01  -1.0704632381705093e+00 1.6977595863584016e+00 -3.5207383683262574e-05  -8.1172941524085485e-01 1.6478876064082613e+00 6.6895606956974429e-01  -5.6871170929895098e-01 3.9097594711184491e-01 8.4464277067716453e-01  1.2308946952730830e+00 2.8242790423382385e+00 -2.1596793395428533e-05  -1.0298067912634026e+00 9.4343687019589728e-01 -1.7287022981164547e-05  1.0189285479342405e+00 1.8873059921940702e-01 -2.9293205223869202e-05  1.0705804247910999e+00 1.6977357321264901e+00 -1.9987049816702088e-05  1.0298450438106541e+00 9.4342519197090080e-01 -4.8815862578323899e-05  -1.0456132065434529e+00 1.3207106802093087e+00 -3.1752836729016582e-05  1.1707765869315232e+00 2.4483788641838160e+00 -1.8260754774137923e-05  -1.1704999585792684e+00 2.4484290110990830e+00 -1.1209173151554561e-05  7.4121361492360949e-01 2.8666803056721263e-01 7.0221604264996029e-01  -1.0043419484737188e+00 1.8701623458991063e+00 4.2187682404130633e-01  -7.8637851889060095e-01 6.3408987781595239e-01 6.6542784492998586e-01  -3.2646807309361159e-01 1.2154458300309570e+00 9.1258255599585503e-01  -7.5948324022570257e-01 1.9069976865431548e+00 6.8927271218510788e-01  -4.6589363868749140e-01 1.7681570329925025e+00 7.8536592881913403e-01  -6.0066202577533301e-01 2.4523655491370029e+00 5.0217541930500387e-01  5.3070559589230293e-01 8.9833135485019067e-01 8.6043828313377613e-01  1.8324842813158163e-01 2.1809428960188564e+00 3.8683467047628223e-01  5.4093034683558494e-01 1.8831067827145123e+00 7.4414825314967004e-01  1.0691122914644573e+00 2.4455097047738903e+00 3.7036281702258961e-01  1.1197341495619408e+00 2.2384228915177538e+00 1.8737121314811964e-01  1.0740215048817627e+00 1.8833530979285336e+00 1.8947804550539946e-01  -2.2990518375805585e-01 1.0575060659694953e+00 9.3685284226088605e-01  7.1371764068831534e-01 1.2473935875326660e+00 7.4694537440788489e-01  5.7708463081693462e-01 1.5225378886788632e+00 8.1915057906864241e-01  -2.0503157326528024e-01 4.3926581453951313e-01 9.7648889132192773e-01  -9.8970667593368267e-01 1.5125678374383167e+00 3.9070481147501318e-01  -1.0415877296746507e+00 2.3057753165278023e+00 4.0749112109335273e-01  -1.0113183110169826e+00 6.4870162247640806e-01 1.6235645379159319e-01  4.2285918259369781e-02 1.9721166800289367e+00 4.9906337820685909e-01  5.7339022643220694e-01 4.3546733967541540e-01 8.4194899244909205e-01  2.3872264654274497e-01 4.1433568630503986e-01 9.7159869361435214e-01  1.1541748229846114e+00 2.6333534904246068e+00 2.3453196748834806e-01  8.8678867869303812e-01 2.2721367417513125e+00 5.5667024038632162e-01  -5.5855121241871519e-01 2.5938638454241687e+00 4.0496123837731202e-01  -5.8944830082655986e-01 1.9047261218043867e+00 7.3638610362853185e-01  1.0282580582609826e+00 2.0660752797068369e+00 4.0680269775693978e-01  -4.7806438697773667e-03 1.3543958379281686e+00 9.2592055429936293e-01  3.4576511114973529e-01 2.2764325679373401e+00 4.2900720417622812e-01  3.6795542072443771e-01 2.0003107703071397e+00 6.2529848672370447e-01  1.8641646870609058e-02 1.8101223357267071e-01 1.0077119918380719e+00  -8.7422247227883443e-01 2.6053019852133104e+00 4.7805714745275596e-01  1.7748438187530255e-01 1.8023766475363212e+00 6.6753427764948448e-01  3.3539186616549244e-01 2.5654540943415478e+00 2.3217006405318591e-01  -3.1545936074879011e-01 5.7194601311639626e-01 9.4740543138884104e-01  -4.8679901243670198e-01 5.6759644108512508e-01 8.8778428247701413e-01  6.1411872594021831e-02 2.4386622014308101e+00 1.5774973435037071e-01  -1.7847474646815631e-01 2.1753957273852205e+00 3.8815693699846998e-01  -9.0208620481333124e-01 6.3443814101445395e-01 4.9705316255580007e-01  -9.6748530774811103e-01 8.6077495471401322e-01 3.6563826203906286e-01  -3.8664771132680525e-01 2.3059997044878178e+00 4.4181318567809413e-01  -3.2151809269738596e-01 2.0172136317997538e+00 5.8502230669303146e-01  -1.0099653934951867e+00 2.8310535489449007e-01 1.4526629082837769e-01  7.8714822866400824e-01 1.3570481527269349e-01 6.4527193581258724e-01  -6.4276418299867677e-01 1.3889888698379496e-01 7.8842736459218421e-01  -1.0645068258443668e+00 1.7599273627231184e+00 1.6942223440539142e-01  1.0342659691007212e+00 1.3501455911410911e+00 1.7922207551536398e-01  -4.9729482733021374e-01 8.7428796965114586e-01 8.7595459442861690e-01  -5.9338509140875340e-01 7.3405337152532135e-01 8.2973397770436330e-01  7.5266872548207363e-03 1.7010593825630829e+00 7.1792207592980173e-01  -9.7421722843200287e-01 1.3923190261144874e-01 2.9535418642129657e-01  -6.2910234964973644e-01 2.7752831126046833e+00 3.5481639127569203e-01  1.0192051492745495e+00 8.4926943059866311e-01 1.3664033674001269e-01  -1.7637703567638272e-01 1.8459499321789536e+00 6.3249302629906579e-01  6.8301468768819518e-01 6.3448398294802533e-01 7.6581778166055869e-01  -9.1198427066657406e-01 3.5512183795918273e-01 4.6275206084509612e-01  2.2478909220607038e-01 2.4422923102397314e+00 2.2627607333825217e-01  8.5106876015994315e-01 1.5795380387846523e+00 6.2756817366918649e-01  5.0057241365591731e-01 1.1943964214372598e+00 8.6424069519507118e-01  -3.1806480686257410e-01 2.4713888843310228e+00 2.7732270158485001e-01  8.5763163768878692e-01 1.9643210172069898e+00 6.1911918084667983e-01  9.8829023812554351e-01 1.7383776661468542e+00 4.3322259397015922e-01  -7.4360077614003117e-01 4.5601897253739343e-01 7.0533644721577271e-01  2.1249164042714455e-01 7.5133793450185471e-01 9.5780281619050478e-01  -6.3133443413735613e-01 2.1746953527429920e+00 6.3645551266691947e-01  -6.1225429414531618e-01 1.2460200658182261e+00 8.1217649820807059e-01  -7.2927714482598371e-01 1.0333191400373913e+00 7.3315197374333896e-01  -7.9459113230652045e-01 1.3440473962687418e+00 6.7872750475413146e-01  9.4533338818382795e-01 9.3619216209819012e-01 4.3034220730311290e-01  -9.7558103509942917e-01 1.1782754301225233e+00 3.7996210606585651e-01  8.9765059789814705e-01 1.2498223260272778e-01 4.7949021557060723e-01  9.1702084558464836e-01 3.8357123971608209e-01 4.5392904929139954e-01  -6.6503542043411967e-01 1.5882516968622140e+00 7.7369048477245350e-01  9.6833774714853027e-01 1.4424310107578127e+00 4.3250832090014024e-01  -9.4056036592731185e-01 2.3910681121