<?xml version="1.0"?>
<VTKFile type="UnstructuredGrid"  version="0.1"  >
<UnstructuredGrid>
<Piece  NumberOfPoints="758" NumberOfCells="1386">
<Points>
<DataArray  type="Float64"  NumberOfComponents="3"  format="ascii">-1.570796326794897 3.048 0  -1.570796326794897 0 0  1.570796326794897 0 0  1.570796326794897 3.048 0  0 0 0  0 3.048 0  -1.570796326794897 1.524 0  1.570796326794897 1.524 0  -0.04609926118424437 1.524 0  0.7853981633974483 0 0  0.7623485328053261 2.262242601661362 0  -0.7853981633974483 0 0  -0.7853981633974483 3.048 0  0.392699081698724 0.7745759241961347 0  -1.570796326794897 0.762 0  -0.8084477939895706 2.0955 0  -0.68277245543452 0.8915343570675713 0  0.7853981633974483 3.048 0  0.778743707341909 1.468410948960538 0  2.780093748954961e-16 2.285302774973185 0  -1.570796326794897 2.286 0  1.570796326794897 0.762 0  1.570796326794897 2.286 0  -0.9375370967763674 1.47348297960658 0  0.9831575747762593 0.9003629142671278 0  -0.3926990816987241 0.4064697549061488 0  1.177419588818055 1.905 0  0.3692901340097942 1.880893989147954 0  -0.4920225169641509 2.564371687128368 0  0.3926990816987241 3.048 0  1.178097245096172 0 0  1.155705348811136 2.643920532523289 0  -1.178097245096172 3.048 0  -1.178097245096172 0 0  -0.1391296372266528 0.8873724190154949 0  -1.10527745318919 2.528282743051346 0  -0.9817477042468103 0.4742759268549471 0  -0.3416666987802651 1.923944646262223 0  -1.570796326794897 1.905 0  -1.156555306160469 1.030861936336814 0  0.7648449098493205 0.4764142032227 0  0.3926990816987241 0 0  -0.4820376416180818 1.326151321396512 0  0.06374421723344185 0.4545169930886408 0  0.1972735722393064 1.163324878565267 0  0.3900417218314142 2.566922767651637 0  1.570796326794897 0.381 0  1.188877612935585 1.295195418509834 0  1.179914028402171 0.5308585702661928 0  0.7660075594126428 1.865233039449035 0  0.6330293131838399 1.095171663968746 0  -1.201232463242587 2.144287146570887 0  -0.3926990816987241 0 0  -0.3926990816987241 3.048 0  1.178097245096172 3.048 0  0.7684409382397209 2.649499271873753 0  -1.236954997304436 1.7145 0  -0.1088573452899617 2.666651387486592 0  -1.570796326794897 1.143 0  -1.570796326794897 0.381 0  1.570796326794897 1.143 0  1.570796326794897 1.905 0  1.570796326794897 2.667 0  -1.570796326794897 2.667 0  -0.6730839067294777 1.743003792473746 0  1.199831389396789 2.275437921225198 0  0.3936837537618041 1.495643752599615 0  0.01539369169800942 1.928544709491661 0  0.4156551272669651 0.4219033286010089 0  0.3401546043708642 2.225103550856524 0  -0.3379897306391274 2.262671266279809 0  -1.23624174049596 0.7000907110925838 0  -1.265224057170889 1.360131453617764 0  -0.1224339018241312 1.210043725539656 0  1.289286200625578 0.9918698881707442 0  -0.7751142346211329 1.197848666814478 0  1.003546186550495 0.2660297686099683 0  0.1963495408493621 2.808538634159524 0  -0.8079023568959116 2.703551618159924 0  -0.3480226984353056 1.610059855391589 0  1.075147893506229 1.598068412087719 0  -0.8290627893979112 2.399544545867518 0  0.6965048925255637 0.7972100472372819 0  -1.257765094876752 0.3107645483825858 0  -0.6724835324263325 0.5684215760013651 0  -0.3995059642389676 0.7173610149075536 0  0.9136951972244611 1.187564504803626 0  -0.964259350608907 0.8095514380783081 0  -0.7565990314517038 0.2897049735129544 0  -0.9603859887840651 1.834914433810327 0  -0.1457055965762301 0.2521630699436873 0  0.1963495408493621 0.2041911848053476 0  0.6241974196550791 0.231695999252114 0  -0.4098815011312292 1.029160072548571 0  0.9592800715482012 2.452820690856482 0  0.9648684169153161 2.840751931000357 0  0.5890486225480862 3.048 0  0.164631037784102 1.698913854044779 0  0.5664480837073581 2.070920238540226 0  1.374107957806476 1.7145 0  0.9861079629544779 2.102471438422718 0  -1.374446785945534 3.048 0  -1.288827800789186 2.762781313597598 0  1.353232957571468 2.835634774483438 0  1.302158670506274 0.2650078124691045 0  0.1394669809465775 0.8907702620243092 0  -0.5631487221059602 2.830992231257464 0  1.372837635547072 2.483038902756259 0  -0.1493395228831287 0.618617259260858 0  -1.32327048447753 2.378769394323546 0  0.56080204725298 1.699622905297025 0  1.570796326794897 2.0955 0  0.5403456747786348 2.786446773498672 0  -0.9817477042468103 0 0  -0.5847039960246873 2.326882432521036 0  0.1225428891326576 2.526494255738436 0  -0.9817477042468103 3.048 0  -0.5522901559753841 2.071668786267058 0  -1.370864794258017 0.9075071715671403 0  -1.043891045637083 1.250611220450313 0  -0.1652643923634778 2.09141301924679 0  -1.044446740946883 2.764982067459552 0  -0.1610370079820225 1.763280243096074 0  -0.3136912237752232 2.810498886211121 0  0.5400974078002052 2.370472734822523 0  -0.7009161718414544 1.427243880175582 0  0.902907438200502 0.6735032943420574 0  -0.9879196222361604 0.2371379634274736 0  1.319268546233604 0.7412771512308228 0  0.5578373583610097 0.608241627784878 0  0.5756483102040615 1.332636919938113 0  -0.5281701577409 0.2032348774530744 0  -0.266729509930448 2.489223923247521 0  -1.570796326794897 0.5715 0  -0.2430656531629531 1.405631921096758 0  0.253622337931223 0.5884397663452474 0  1.284044721043478 1.50372037617638 0  1.570796326794897 1.3335 0  -0.9904333867980613 2.235882060371517 0  0.9871146764618406 1.395690276854986 0  -1.374446785945534 0 0  0.3981951765262902 1.020833864419675 0  0.1670583512016766 1.405384478716078 0  -1.330327693484763 1.938638984813805 0  0.2106653067452682 2.040805097078886 0  1.570796326794897 0.5715 0  1.334822181490566 2.081373939821734 0  -0.9303227889097604 1.033236710715967 0  -1.34639228476592 1.150776798768373 0  -1.570796326794897 0.1905 0  1.106697207481837 1.099709897393925 0  0.4137866939027022 0.2104288000383385 0  -1.570796326794897 2.0955 0  0.9761377489246634 0.4754251272674608 0  1.377108465632662 0.4605024587280874 0  1.108114944719677 0.7297638044096917 0  0.3695908229138113 1.285681859811955 0  0.9799112840676307 1.800306505551499 0  -0.001696842075803034 1.042028929293442 0  1.366537356420357 1.185723700290463 0  -1.385029840108318 0.47625 0  0.05842649915411911 0.6874537157920781 0  -1.183268988745763 0.4997334438341218 0  -0.6073502281622543 1.081347079085406 0  -1.026941765261019 2.031536576622642 0  -1.570796326794897 2.8575 0  0.8159726599830506 1.011928543199529 0  0.7652782693277244 2.849245002237192 0  -0.5252326280373281 1.520125074885265 0  0.7648326174724897 2.063743853392348 0  0.757099741434616 1.666331708950521 0  -0.1963495408493621 3.048 0  -0.005410422648647092 2.843333256403111 0  -1.395368347654653 2.19075 0  1.374446785945534 0 0  0.9817477042468103 3.048 0  0.1963495408493621 0 0  -0.1963495408493621 0 0  0.5890486225480862 0 0  0.1963495408493621 3.048 0  0.9817477042468103 0 0  1.374446785945534 3.048 0  -0.5890486225480862 3.048 0  -0.5890486225480862 0 0  -0.06865319188571758 2.471928549109083 0  1.159049337209348 2.838090892449816 0  0.5817075150535711 2.596909954318943 0  0.7656515661107315 2.455866896253367 0  0.9620790410056582 2.647119292933887 0  0.3676829480103987 1.68739481709134 0  -0.8886101495223063 2.878912500124773 0  -0.3317793704126089 0.1873756770788371 0  -1.383208664444332 2.577695923010364 0  -1.043597917648523 1.648216005744782 0  -1.362178343413552 1.546177620526679 0  -1.570796326794897 1.7145 0  -0.8462722504471433 1.648434957877788 0  -0.588076822054871 0.3899352838051667 0  1.570796326794897 2.8575 0  -1.570796326794897 0.9525 0  1.570796326794897 0.1905 0  1.570796326794897 1.7145 0  1.570796326794897 0.9525 0  -1.570796326794897 1.3335 0  1.570796326794897 2.4765 0  -1.570796326794897 2.4765 0  0.8103777117362174 0.287468585434799 0  -1.145334531235929 1.881885620422454 0  -0.8620560674467429 0.6361265362229395 0  -0.321688879263093 1.207848147265888 0  -0.7798551871678058 1.904240998338365 0  -0.4724954359209014 1.769587110195458 0  -0.667402576232105 2.495985359319255 0  0.5365063314111709 0.8945566719544227 0  0.1855702280441107 2.342745654422604 0  0.55510120733165 1.88540118775351 0  1.188295809121239 2.460939894898248 0  1.38587897409014 2.260870763688798 0  1.383978812419919 1.901097375082534 0  -0.2265735189171196 1.049795314962436 0  0.7387890113368257 1.246392780742437 0  0.5763234466275948 1.516457524623135 0  -0.203279258075353 0.4348372558382012 0  -1.179202350299698 1.523245956950107 0  -1.151844216720993 2.318990544544152 0  -1.410806081599612 0.6547540757597369 0  0.04190096621848406 2.108399609871347 0  0.5925649981629265 0.4343292987553075 0  0.2371113691258682 0.4102816185532077 0  1.334103818253725 2.657728219912091 0  0.9405077369493808 2.275181409651143 0  -0.633962040105568 2.669303984283053 0  -0.6045614816381242 1.904349918307267 0  1.159697673803787 2.079238591118184 0  -0.004643801590645341 1.347662554528907 0  0.3691400131247499 2.395423267764724 0  0.3855005143298051 2.055603978165229 0  0.01839821075864462 0.1788084577298442 0  -0.9568120219060965 2.61629404172056 0  0.1783135820912846 1.871116340262054 0  0.3649950158263953 2.745288921627024 0  -0.3142054567155264 0.5671999812317062 0  -0.4933549623779417 0.564740705097546 0  0.06092775470575962 2.685867440722903 0  -0.1801827362748675 2.337517890002858 0  -1.063355415037434 0.6386189748554 0  -1.205242865599393 0.8676070232612285 0  -0.4176020549597784 2.412196127179313 0  -0.3347051678178828 2.093252344225509 0  -1.427772711006951 0.2857500000000001 0  0.8835729338221293 0.1362887052191026 0  -0.6831011505337878 0.1389086130988801 0  -1.403875662049666 1.77648180985222 0  1.394165436236593 1.362588987767805 0  -0.5007942298153729 0.8700626692351643 0  -0.6093220848169366 0.7321530406295067 0  0.007534593095922887 1.760126887057542 0  -1.276272015520854 0.140425968067263 0  -0.7270478511000733 2.847016806985676 0  1.436331331726002 0.85725 0  -0.1770320080670663 1.927167796173981 0  0.7200726153501196 0.6345534912379586 0  -1.099983122078282 0.3577316115390257 0  0.2324759135153202 2.648405702327079 0  0.9054371869972004 1.582409569434113 0  0.5000672234640285 1.188708149930449 0  -0.340793734207542
[...]
<PointData  Vectors="phi"> 
<DataArray  type="Float64"  Name="phi"  NumberOfComponents="3" format="ascii">-1.0558751869242609e+00 3.0404515729943582e+00 -2.1177414436830798e-05  -1.0160078330608584e+00 -5.0193198746920980e-08 -9.8565201579759655e-06  1.0160080301614873e+00 -3.5491062790832645e-08 -1.1712902596081308e-05  1.0558655511297921e+00 3.0404554325428381e+00 -1.1225893470016790e-05  -6.0298050981796116e-06 1.3397199292361362e-08 1.0160072950753916e+00  2.2746031936000281e-05 2.9877050429410317e+00 6.2991120004985213e-01  -1.0390154064818149e+00 1.5178361067886492e+00 -1.7788199257025498e-05  1.0390155085183510e+00 1.5178370964477701e+00 -2.5798430022045122e-05  -4.6784470139118128e-02 1.5310358067844954e+00 9.7201315000506727e-01  7.1842685728416200e-01 7.4981195022273281e-08 7.1841655253391823e-01  7.3433962196260194e-01 2.2607664531725420e+00 7.2866401243164602e-01  -7.1842460717375978e-01 -1.7269777453331691e-07 7.1841805478851317e-01  -7.7650347960609212e-01 3.0459782476046438e+00 7.1199336126005253e-01  3.8962798001395821e-01 7.7731609798709478e-01 9.2967176866946344e-01  -1.0251564511471858e+00 7.5835402810605113e-01 -1.9453028996010615e-05  -7.6496375891217638e-01 2.0934108168720971e+00 6.9750305773999455e-01  -6.4604465694316682e-01 8.9198258856488799e-01 7.8425631374689087e-01  7.7655053945804675e-01 3.0460292473521564e+00 7.1216650910432489e-01  7.2859575898649509e-01 1.4675172405694172e+00 7.1849825919019139e-01  4.6247749738451677e-06 2.2923453656220052e+00 9.1955262228679047e-01  -1.0521329815973501e+00 2.2786727939251623e+00 -2.1940790448422086e-05  1.0251610018217647e+00 7.5835409964116107e-01 -3.0906871021865804e-05  1.0521163813929899e+00 2.2786770764490147e+00 -5.2851780056296669e-05  -8.3784221265113934e-01 1.4706454213472784e+00 5.9987809368724287e-01  8.5442706639118327e-01 8.9824615094716243e-01 5.6275668468553475e-01  -3.8879044996856305e-01 4.0798539412297991e-01 9.3475576069979971e-01  9.6998173797765641e-01 1.8991646770825410e+00 3.8993184415730708e-01  3.7134282549506520e-01 1.8862285004173043e+00 9.0757848371594341e-01  -4.9707311598617743e-01 2.5683043026951151e+00 8.4406552514720490e-01  3.8858787513171550e-01 3.0341982485808878e+00 7.2879697084303174e-01  9.3865960137428184e-01 -1.5349716010057956e-07 3.8880623826872479e-01  9.8145255607533100e-01 2.6369381201194142e+00 4.1293045975309484e-01  -1.0020587406043613e+00 3.0405232272580416e+00 3.9431802589945369e-01  -9.3865678457005830e-01 -2.9997821532752599e-07 3.8881405992708246e-01  -1.4078687030116879e-01 8.9191040170633906e-01 9.8947609785545343e-01  -9.5725245416335258e-01 2.5217661794065620e+00 4.5910310015771916e-01  -8.4827550888481451e-01 4.7312457781866146e-01 5.6444672307081900e-01  -3.4437190996637357e-01 1.9296732547782920e+00 9.1267961685588916e-01  -1.0462349595683074e+00 1.8980844139983770e+00 -2.4314098934106829e-05  -9.4252329334068063e-01 1.0273000557703136e+00 4.0899398008134552e-01  7.0572794972718722e-01 4.7626758359413124e-01 7.3202023245367887e-01  3.8881354664099815e-01 2.5198907175800220e-07 9.3866199741163125e-01  -4.7562701268227048e-01 1.3292468089050733e+00 8.8426670130379137e-01  6.4601357353824398e-02 4.5710800409313607e-01 1.0067419523912220e+00  1.9924496276343884e-01 1.1686645651995740e+00 9.7223686102595286e-01  3.9490922073053347e-01 2.5714491730969389e+00 8.6001305724789867e-01  1.0203618658456435e+00 3.7907227341578142e-01 -1.9517685579737576e-05  9.6058602015941852e-01 1.2907055885376764e+00 3.7875589690000527e-01  9.4446114189351826e-01 5.2882077777309244e-01 3.8736593140546383e-01  7.2694904456442377e-01 1.8641152882417289e+00 7.2602008693588338e-01  6.0718962682229860e-01 1.0962145417976690e+00 8.1237375768181597e-01  -9.8467957411839946e-01 2.1378746868041452e+00 3.6782517672259862e-01  -3.8880316994758957e-01 5.8466403638602674e-10 9.3866096580701253e-01  -3.8853270174636856e-01 3.0342917314044353e+00 7.2907855999967108e-01  1.0019906756767745e+00 3.0405292111358260e+00 3.9431115026403907e-01  7.5264965086187341e-01 2.6476828531374501e+00 7.2684500390043716e-01  -9.8700741821438498e-01 1.7087203958833195e+00 3.3318753466524814e-01  -1.0980823597520094e-01 2.6607337700285569e+00 8.2622181501712044e-01  -1.0316790396247095e+00 1.1379326834234231e+00 -2.6760289703164850e-05  -1.0203606021238769e+00 3.7907228201799192e-01 -2.5067938396786345e-05  1.0316821907708342e+00 1.1379328359878960e+00 -9.8373040106578216e-06  1.0462261843786835e+00 1.8980870239581273e+00 -5.1439663729195682e-05  1.0553702158956564e+00 2.6595339122700485e+00 -2.2103946077082105e-05  -1.0553990985970330e+00 2.6595299341542749e+00 -2.2947934098900171e-05  -6.4952275417727556e-01 1.7434915964529221e+00 7.8382732255288812e-01  9.8738983814237347e-01 2.2688188646393628e+00 3.6946024486641893e-01  3.9315410044541776e-01 1.5001025518268256e+00 9.1309222870277618e-01  1.5634656214811495e-02 1.9363100473692496e+00 9.4882370080643053e-01  4.1031554893627620e-01 4.2338165535571881e-01 9.2565250765586493e-01  3.4465592760923053e-01 2.2310538992589835e+00 8.9932761619306822e-01  -3.4273357451140313e-01 2.2686335058913900e+00 8.9759324080122604e-01  -9.6716965347953210e-01 6.9725766808990319e-01 3.3384060977344465e-01  -9.8839694153939106e-01 1.3550738642573084e+00 3.0581619901386009e-01  -1.2403305862119163e-01 1.2158944071566327e+00 9.8074141740631482e-01  9.8843887378737372e-01 9.8782813396115754e-01 2.8242445984021591e-01  -7.2139175365204444e-01 1.1972364899725032e+00 7.2201983603806552e-01  8.5866808470494282e-01 2.6533292774137041e-01 5.4611764551112663e-01  1.9699698007496191e-01 2.7945625925013111e+00 7.7732407517883495e-01  -7.8603765093264788e-01 2.7008101426865472e+00 7.0204192948638067e-01  -3.4931503037346751e-01 1.6152635169570631e+00 9.2307311612396958e-01  9.1737366013544375e-01 1.5936401953772470e+00 4.8313160601917182e-01  -7.8992050580511908e-01 2.3966804359116187e+00 6.8490215733152560e-01  6.5610716330579522e-01 7.9751464745265821e-01 7.7619387555971453e-01  -9.6972750479690728e-01 3.0942217581784404e-01 3.1319999661953640e-01  -6.3511417232233569e-01 5.6881469753154545e-01 7.9261947013713674e-01  -3.9590237719883903e-01 7.1988036485150542e-01 9.2808503130325937e-01  8.1723879113485887e-01 1.1854824146699909e+00 6.1913196087903599e-01  -8.4211963676073665e-01 8.0775758304288059e-01 5.7864263679206629e-01  -6.9842578140065825e-01 2.8964523079658988e-01 7.3831279318937637e-01  -8.6041478290782580e-01 1.8311337853202443e+00 5.8165961887453899e-01  -1.4733251066614447e-01 2.5355357965020342e-01 1.0017539342778559e+00  1.9800841189320614e-01 2.0526631588332031e-01 9.9392459898661489e-01  5.9410037212392941e-01 2.3199095726260402e-01 8.2355145032093169e-01  -4.0665459402803084e-01 1.0324596362901430e+00 9.1866667191833717e-01  8.7893922676652292e-01 2.4478476117534282e+00 5.8593422371428105e-01  8.9950058887276019e-01 2.8349999774316745e+00 5.8626838822814586e-01  5.8528480370152580e-01 3.0477281895389279e+00 7.6150112510807677e-01  1.6678431537607832e-01 1.7059036154602052e+00 9.5398544163783028e-01  5.6135208630194100e-01 2.0732555317501826e+00 8.3451014868477758e-01  1.0233589108232510e+00 1.7081835635926021e+00 1.9868693974869073e-01  8.8296945525630666e-01 2.0978741289526317e+00 5.6123363939705773e-01  -1.0433749933704199e+00 3.0404310151624760e+00 1.9916094492888670e-01  -1.0243702286473979e+00 2.7553524959006284e+00 2.8426105267427976e-01  1.0382218296876689e+00 2.8281386424528403e+00 2.2020875086381869e-01  9.8228260632066700e-01 2.6380943421452491e-01 2.6997168612707551e-01  1.4110476069395916e-01 8.9532250990605367e-01 9.8933580142343125e-01  -5.6449192017228356e-01 2.8328738304663554e+00 7.9754295171414280e-01  1.0370065804855877e+00 2.4757093474916041e+00 2.0018855764059507e-01  -1.5098081825385581e-01 6.2190980102377591e-01 9.9474225768473090e-01  -1.0253993454082722e+00 2.3716046275381468e+00 2.4946599296991079e-01  5.5102800918946526e-01 1.7019345167923328e+00 8.4274722865452223e-01  1.0494343258451309e+00 2.0883399027353180e+00 -2.2924598634146326e-05  5.4258676366636671e-01 2.7887762981304758e+00 8.0756705495886760e-01  -8.4477371347747832e-01 -6.1320778176483866e-08 5.6446161719742338e-01  -5.8297656121578423e-01 2.3290040001025787e+00 8.2323288880547740e-01  1.2421062615710554e-01 2.5290974023439081e+00 8.7369981802251406e-01  -9.1902315979361193e-01 3.0418026263094382e+00 5.7512142044834136e-01  -5.4833104110327202e-01 2.0742692774939981e+00 8.4059082675085872e-01  -1.0069913530482071e+00 9.0351946295213592e-01 2.0195045850962431e-01  -8.9389864904707406e-01 1.2472344537749482e+00 5.1053609375014675e-01  -1.6789474493903339e-01 2.0987609477361571e+00 9.3067254860137383e-01  -9.3856552924433789e-01 2.7584797653844824e+00 5.1655624168827730e-01  -1.6320525268522545e-01 1.7704073695927356e+00 9.5091049672584149e-01  -3.1379060764092392e-01 2.8045523909952070e+00 7.9490733111618017e-01  5.4201297962756578e-01 2.3735058376704079e+00 8.3990028031774011e-01  -6.6723044142669996e-01 1.4274401524604228e+00 7.6936876186349867e-01  8.0278737012572876e-01 6.7236219708819023e-01 6.2859006669825790e-01  -8.4974549940754496e-01 2.3654948014135332e-01 5.5941279370152919e-01  9.9244954505251604e-01 7.3804353402790790e-01 2.5309487414148274e-01  5.3935089776045131e-01 6.0942680073062938e-01 8.5811456332035929e-01  5.6021654832376688e-01 1.3345316799926881e+00 8.4076567005367597e-01  -5.1202615390994544e-01 2.0371051034716089e-01 8.7644199186768879e-01  -2.7071963816816913e-01 2.4942828824909120e+00 8.8135244532094714e-01  -1.0225104281317581e+00 5.6867686842416165e-01 -1.5102406091003164e-05  -2.4516927841483119e-01 1.4114016810633028e+00 9.5512734363039409e-01  2.5478971261613009e-01 5.9125097885876876e-01 9.7532478375565090e-01  9.9705035331405623e-01 1.4982049562619304e+00 2.8754553455839188e-01  1.0353029343586888e+00 1.3278425350949890e+00 -1.4548304841393456e-05  -8.8950035596277033e-01 2.2309764737544655e+00 5.5827696823463979e-01  8.6577745173171239e-01 1.3924972962402717e+00 5.5911766704537158e-01  -9.9647700488607482e-01 -3.6535452871070250e-07 1.9820724459129324e-01  3.9556047012393253e-01 1.0242192149833158e+00 9.2309505758800370e-01  1.6905798637161695e-01 1.4116577669972785e+00 9.6760898127296380e-01  -1.0184904797918737e+00 1.9320352569250603e+00 2.4223082790368253e-01  2.1371866584520385e-01 2.0478836267927027e+00 9.2934934507024536e-01  1.0225136841764562e+00 5.6867692123709301e-01 -2.6515845423167419e-05  1.0224208976481337e+00 2.0745364876649046e+00 2.3784288430421158e-01  -8.2502910217074399e-01 1.0312718588028267e+00 6.0607276986262548e-01  -1.0060715638512281e+00 1.1460252913398947e+00 2.2624436412992566e-01  -1.0180827380943644e+00 1.8953552528810108e-01 -3.3610120179966983e-05  9.2189745573865944e-01 1.0962541779333002e+00 4.5469963592263485e-01  4.0835514105766479e-01 2.1117387070050239e-01 9.2853886169432043e-01  -1.0494516181414624e+00 2.0883371773380319e+00 -3.1289225196843979e-05  8.4507890191851887e-01 4.7429434885088101e-01 5.6915750402190679e-01  1.0019857835744697e+00 4.5832226874746829e-01 1.9580595862019029e-01  9.1644873535312521e-01 7.2734878482024456e-01 4.5356051762721156e-01  3.6908725935023234e-01 1.2899885579647379e+00 9.2658986134515664e-01  8.7109570911069290e-01 1.7963740020268824e+00 5.6548871618663921e-01  -1.7267904169216497e-03 1.0474554996017855e+00 9.9327086331252434e-01  1.0111431923093237e+00 1.1808020306404412e+00 2.0624039957294357e-01  -1.0036958529914795e+00 4.7398847713776870e-01 1.8788336972894060e-01  5.9229293085786644e-02 6.9124985913257997e-01 1.0021063696625805e+00  -9.4542101736691575e-01 4.9779894532454388e-01 3.8423119410262363e-01  -5.8531194542601406e-01 1.0826720330350272e+00 8.2691798057625476e-01  -9.0365150109716952e-01 2.0266506284435195e+00 5.2623247568547293e-01  -1.0561137789689330e+00 2.8499972325366034e+00 -3.2712640544636519e-05  7.4849955674072921e-01 1.0110448952318798e+00 6.9378362286701012e-01  7.5553033933219438e-01 2.8476026205914753e+00 7.2663980511926018e-01  -5.1685219004418836e-01 1.5228642703989088e+00 8.6198700256888094e-01  7.3076808558682671e-01 2.0624297673673184e+00 7.2665697381106942e-01  7.1584625128055146e-01 1.6655533710408252e+00 7.3237423635216869e-01  -1.9767061732782590e-01 3.0083265389028599e+00 6.6970690050503789e-01  -5.4722981552949336e-03 2.8170874728327919e+00 7.4360369777891644e-01  -1.0363640575365047e+00 2.1836363356368205e+00 1.7751161683241573e-01  9.9647710623417041e-01 -4.7311492055281180e-07 1.9821000295782917e-01  9.1898461805494147e-01 3.0417952604007796e+00 5.7513462576791308e-01  1.9820924766734538e-01 6.9889349389454260e-07 9.9648440374616709e-01  -1.9821719116202874e-01 3.7007377979855437e-07 9.9647974532048700e-01  5.6445637357357004e-01 1.1302190349383638e-07 8.4477642929401153e-01  1.9769487824253199e-01 3.0082139926890643e+00 6.6952884533005430e-01  8.4477588166307693e-01 -3.5593019429738284e-08 5.6446075912246740e-01  1.0433577742989981e+00 3.0404289430025009e+00 1.9917014030906266e-01  -5.8526068961679278e-01 3.0477698980079948e+00 7.6161590279718383e-01  -5.6446128266965834e-01 7.4493776202975577e-08 8.4476980418065639e-01  -6.9730911697797660e-02 2.4759902735613735e+00 8.8728012626719277e-01  9.8899468544871572e-01 2.8308484820197801e+00 4.1106436818783665e-01  5.8457601212663335e-01 2.5993768283383156e+00 8.1651369550926056e-01  7.4339255469587517e-01 2.4541699444121963e+00 7.2763471703152871e-01  8.8889963347978718e-01 2.6417193656622802e+00 5.8601756546288486e-01  3.6882301397210571e-01 1.6924894350052400e+00 9.1496582494580236e-01  -8.5238894412370825e-01 2.8744015524968591e+00 6.4673188014725458e-01  -3.3072200438230104e-01 1.8818006593369899e-01 9.5878345484901284e-01  -1.0400020482070360e+00 2.5702987630943235e+00 1.8986035881200133e-01  -9.0253535846556820e-01 1.6439557826096531e+00 5.1095882149061933e-01  -1.0174569629732406e+00 1.5402717520591431e+00 2.1057464501924028e-01  -1.0427083622562019e+00 1.7079163273769951e+00 -3.5123596605577904e-05  -7.8134258632252451e-01 1.6464112138635107e+00 6.7025116189399503e-01  -5.6434855849957477e-01 3.9058577978357795e-01 8.4337523309628359e-01  1.0560574044153179e+00 2.8500039494833804e+00 -2.0791273324691955e-05  -1.0282603250124922e+00 9.4810501137876024e-01 -1.7793996481889175e-05  1.0180802071592714e+00 1.8953497865379848e-01 -2.9423615970584868e-05  1.0427004457218045e+00 1.7079181827654610e+00 -2.1214836599017259e-05  1.0282675525847536e+00 9.4810480932712549e-01 -5.0229930473716512e-05  -1.0353020347129183e+00 1.3278421263237805e+00 -3.2536989984495865e-05  1.0541224313415778e+00 2.4690801722454028e+00 -1.6194895090453435e-05  -1.0541326244319527e+00 2.4690772805169816e+00 -1.9650712850556883e-05  7.3733719735923609e-01 2.8724440923698769e-01 6.9996720254064382e-01  -9.5640240377584940e-01 1.8763074222679297e+00 4.1980931818552841e-01  -7.7568324737608818e-01 6.3529358221329979e-01 6.6046789741154310e-01  -3.2239893973563993e-01 1.2124208873330262e+00 9.4300783863413828e-01  -7.3852205919494096e-01 1.9028550419706438e+00 7.1677920015969732e-01  -4.7012550171372502e-01 1.7733270584192304e+00 8.7839566801047064e-01  -6.6183943396464284e-01 2.4964543749012766e+00 7.8323470380171423e-01  5.2219260293637937e-01 8.9639261911625578e-01 8.6601256465416365e-01  1.8883875418297094e-01 2.3492796089561807e+00 9.0747167394774220e-01  5.4823243352064599e-01 1.8878702141726262e+00 8.4237746610537756e-01  9.8799385204487855e-01 2.4540920002239992e+00 3.8102765297061775e-01  1.0359105214485052e+00 2.2537056679600762e+00 1.8701970143016403e-01  1.0289972545225412e+00 1.8944073967002255e+00 1.8887220694298612e-01  -2.2839275234901432e-01 1.0545706839195039e+00 9.7041743314928197e-01  6.9446869773920217e-01 1.2461775277887039e+00 7.4625923765245294e-01  5.6277210366969954e-01 1.5184493597950239e+00 8.3795918974463379e-01  -2.0486059015638253e-01 4.3709056496820614e-01 9.8901300759921396e-01  -9.6172162923448579e-01 1.5182343198335977e+00 3.8792498711709056e-01  -9.7040899924853863e-01 2.3125553164054660e+00 4.1486355827040644e-01  -1.0104568048075997e+00 6.5168245255358781e-01 1.6202252297848602e-01  4.2611423103272872e-02 2.1160913736480063e+00 9.3564982036077993e-01  5.6836971197583830e-01 4.3502843510273204e-01 8.4059219356378900e-01  2.3841137529785927e-01 4.1232773294475678e-01 9.8215313290885387e-01  1.0322575450696012e+00 2.6503278585560288e+00 2.3905769452130043e-01  8.6106274333889810e-01 2.2707978421308246e+00 5.9962047697934573e-01  -6.3467021812159952e-01 2.6707273702836596e+00 7.9385197551318565e-01  -5.9307779177512399e-01 1.9059700254136829e+00 8.1897681940402456e-01  9.6729849723428007e-01 2.0731815323041318e+00 4.0681872639845723e-01  -4.7197280307671287e-03 1.3542120709423739e+00 9.8121992099103894e-01  3.7449697253854003e-01 2.4009541356777575e+00 8.8290778749439169e-01  3.8845650237471713e-01 2.0608920868348140e+00 8.9686239614708629e-01  1.8663262918537152e-02 1.7984758540274437e-01 1.0133775043123530e+00  -8.8434849264150961e-01 2.6110205262871213e+00 5.8991873310585441e-01  1.8074787540381035e-01 1.8782901121643865e+00 9.4296558544024667e-01  3.6643648491183844e-01 2.7452000522360245e+00 8.2092338106669616e-01  -3.1399262615000689e-01 5.6966526228865655e-01 9.5927448620147393e-01  -4.8205723681367657e-01 5.6624046635400471e-01 8.9046023735168833e-01  6.1442727681679361e-02 2.6771864225914905e+00 8.1604900382407330e-01  -1.8336139809833940e-01 2.3440972942131122e+00 9.0841678558021288e-01  -8.9376469940271863e-01 6.3668116933446894e-01 4.9374584037892971e-01  -9.5879048191247762e-01 8.6431324975497092e-01 3.6335281115873569e-01  -4.2301559404298678e-01 2.4172050120487518e+00 8.7263117679414293e-01  -3.3842721366212530e-01 2.0992133897780985e+00 9.0686001069251854e-01  -1.0088249825403541e+00 2.8434317743561094e-01 1.4502440729180763e-01  7.8590462529956162e-01 1.3608477994871965e-01 6.4456169878755609e-01  -6.4149152731831216e-01 1.3899376973779351e-01 7.8772699975617388e-01  -1.0300098960142512e+00 1.7699659222287021e+00 1.6894611973279791e-01  1.0199759325769107e+00 1.3570701516018449e+00 1.7864550121370329e-01  -4.9007686253139437e-01 8.7217932410603405e-01 8.8341177310708252e-01  -5.8420474485799090e-01 7.3313751623747014e-01 8.2906399784527141e-01  7.6591592437602876e-03 1.7677101971888869e+00 9.5958986020758352e-01  -9.7344748871563447e-01 1.3981372751004958e-01 2.9509141079593398e-01  -7.2187061096714089e-01 2.8463587536024857e+00 7.4609472351351780e-01  1.0173715765104780e+00 8.5332286101943944e-01 1.3634606890712456e-01  -1.7953806331362893e-01 1.9344041540484269e+00 9.3986098374632776e-01  6.7311692669118883e-01 6.3465481722823769e-01 7.6177310484865823e-01  -9.0843751250784865e-01 3.5652518046055492e-01 4.6117623193611357e-01  2.3444082246080566e-01 2.6477959253101391e+00 8.4125311559823479e-01  8.1987525183863796e-01 1.5797427073323858e+00 6.2536352611814372e-01  4.9127936132912298e-01 1.1913827841569720e+00 8.7891657793350486e-01  -3.4392534703057503e-01 2.6451387111627942e+00 8.4728182579335765e-01  8.2318828851419212e-01 1.9620492934609226e+00 6.3309079937623869e-01  9.4811115448498740e-01 1.7438970614343741e+00 4.3048611179275542e-01  -7.3651962130119863e-01 4.5679116530797442e-01 7.0161259131893849e-01  2.1189095072811545e-01 7.4842889574796989e-01 9.8165607777014297e-01  -6.5657594380078677e-01 2.1866349686082138e+00 7.8257674348258122e-01  -5.9764352454244285e-01 1.2435342086800052e+00 8.1832227331476071e-01  -7.1211711566775104e-01 1.0331832533785115e+00 7.2913647390346970e-01  -7.7063960336305026e-01 1.3439246053127303e+00 6.7548512294481677e-01  9.3276500293233988e-01 9.3965647743566338e-01 4.2690235646349650e-01  -9.5908498783942908e-01 1.1829011016914761e+00 3.7709335606691574e-01  8.9679231020504602e-01 1.2546338404930363e-01 4.7907589864235894e-01  9.1322000884019960e-01 3.8509774207610165e-01 4.5227710101995344e-01  -6.4536203416549254e-01 1.5843093755955260e+00 7.8606741000280866e-01  9.4175217868243688e-01 1.4472245577509486e+00 4.2908221830358240e-01  -9.0556377454650006e-01 2.391701370115733