<?xml version="1.0"?>
<VTKFile type="UnstructuredGrid"  version="0.1"  >
<UnstructuredGrid>
<Piece  NumberOfPoints="758" NumberOfCells="1386">
<Points>
<DataArray  type="Float64"  NumberOfComponents="3"  format="ascii">-1.570796326794897 3.048 0  -1.570796326794897 0 0  1.570796326794897 0 0  1.570796326794897 3.048 0  0 0 0  0 3.048 0  -1.570796326794897 1.524 0  1.570796326794897 1.524 0  -0.04609926118424437 1.524 0  0.7853981633974483 0 0  0.7623485328053261 2.262242601661362 0  -0.7853981633974483 0 0  -0.7853981633974483 3.048 0  0.392699081698724 0.7745759241961347 0  -1.570796326794897 0.762 0  -0.8084477939895706 2.0955 0  -0.68277245543452 0.8915343570675713 0  0.7853981633974483 3.048 0  0.778743707341909 1.468410948960538 0  2.780093748954961e-16 2.285302774973185 0  -1.570796326794897 2.286 0  1.570796326794897 0.762 0  1.570796326794897 2.286 0  -0.9375370967763674 1.47348297960658 0  0.9831575747762593 0.9003629142671278 0  -0.3926990816987241 0.4064697549061488 0  1.177419588818055 1.905 0  0.3692901340097942 1.880893989147954 0  -0.4920225169641509 2.564371687128368 0  0.3926990816987241 3.048 0  1.178097245096172 0 0  1.155705348811136 2.643920532523289 0  -1.178097245096172 3.048 0  -1.178097245096172 0 0  -0.1391296372266528 0.8873724190154949 0  -1.10527745318919 2.528282743051346 0  -0.9817477042468103 0.4742759268549471 0  -0.3416666987802651 1.923944646262223 0  -1.570796326794897 1.905 0  -1.156555306160469 1.030861936336814 0  0.7648449098493205 0.4764142032227 0  0.3926990816987241 0 0  -0.4820376416180818 1.326151321396512 0  0.06374421723344185 0.4545169930886408 0  0.1972735722393064 1.163324878565267 0  0.3900417218314142 2.566922767651637 0  1.570796326794897 0.381 0  1.188877612935585 1.295195418509834 0  1.179914028402171 0.5308585702661928 0  0.7660075594126428 1.865233039449035 0  0.6330293131838399 1.095171663968746 0  -1.201232463242587 2.144287146570887 0  -0.3926990816987241 0 0  -0.3926990816987241 3.048 0  1.178097245096172 3.048 0  0.7684409382397209 2.649499271873753 0  -1.236954997304436 1.7145 0  -0.1088573452899617 2.666651387486592 0  -1.570796326794897 1.143 0  -1.570796326794897 0.381 0  1.570796326794897 1.143 0  1.570796326794897 1.905 0  1.570796326794897 2.667 0  -1.570796326794897 2.667 0  -0.6730839067294777 1.743003792473746 0  1.199831389396789 2.275437921225198 0  0.3936837537618041 1.495643752599615 0  0.01539369169800942 1.928544709491661 0  0.4156551272669651 0.4219033286010089 0  0.3401546043708642 2.225103550856524 0  -0.3379897306391274 2.262671266279809 0  -1.23624174049596 0.7000907110925838 0  -1.265224057170889 1.360131453617764 0  -0.1224339018241312 1.210043725539656 0  1.289286200625578 0.9918698881707442 0  -0.7751142346211329 1.197848666814478 0  1.003546186550495 0.2660297686099683 0  0.1963495408493621 2.808538634159524 0  -0.8079023568959116 2.703551618159924 0  -0.3480226984353056 1.610059855391589 0  1.075147893506229 1.598068412087719 0  -0.8290627893979112 2.399544545867518 0  0.6965048925255637 0.7972100472372819 0  -1.257765094876752 0.3107645483825858 0  -0.6724835324263325 0.5684215760013651 0  -0.3995059642389676 0.7173610149075536 0  0.9136951972244611 1.187564504803626 0  -0.964259350608907 0.8095514380783081 0  -0.7565990314517038 0.2897049735129544 0  -0.9603859887840651 1.834914433810327 0  -0.1457055965762301 0.2521630699436873 0  0.1963495408493621 0.2041911848053476 0  0.6241974196550791 0.231695999252114 0  -0.4098815011312292 1.029160072548571 0  0.9592800715482012 2.452820690856482 0  0.9648684169153161 2.840751931000357 0  0.5890486225480862 3.048 0  0.164631037784102 1.698913854044779 0  0.5664480837073581 2.070920238540226 0  1.374107957806476 1.7145 0  0.9861079629544779 2.102471438422718 0  -1.374446785945534 3.048 0  -1.288827800789186 2.762781313597598 0  1.353232957571468 2.835634774483438 0  1.302158670506274 0.2650078124691045 0  0.1394669809465775 0.8907702620243092 0  -0.5631487221059602 2.830992231257464 0  1.372837635547072 2.483038902756259 0  -0.1493395228831287 0.618617259260858 0  -1.32327048447753 2.378769394323546 0  0.56080204725298 1.699622905297025 0  1.570796326794897 2.0955 0  0.5403456747786348 2.786446773498672 0  -0.9817477042468103 0 0  -0.5847039960246873 2.326882432521036 0  0.1225428891326576 2.526494255738436 0  -0.9817477042468103 3.048 0  -0.5522901559753841 2.071668786267058 0  -1.370864794258017 0.9075071715671403 0  -1.043891045637083 1.250611220450313 0  -0.1652643923634778 2.09141301924679 0  -1.044446740946883 2.764982067459552 0  -0.1610370079820225 1.763280243096074 0  -0.3136912237752232 2.810498886211121 0  0.5400974078002052 2.370472734822523 0  -0.7009161718414544 1.427243880175582 0  0.902907438200502 0.6735032943420574 0  -0.9879196222361604 0.2371379634274736 0  1.319268546233604 0.7412771512308228 0  0.5578373583610097 0.608241627784878 0  0.5756483102040615 1.332636919938113 0  -0.5281701577409 0.2032348774530744 0  -0.266729509930448 2.489223923247521 0  -1.570796326794897 0.5715 0  -0.2430656531629531 1.405631921096758 0  0.253622337931223 0.5884397663452474 0  1.284044721043478 1.50372037617638 0  1.570796326794897 1.3335 0  -0.9904333867980613 2.235882060371517 0  0.9871146764618406 1.395690276854986 0  -1.374446785945534 0 0  0.3981951765262902 1.020833864419675 0  0.1670583512016766 1.405384478716078 0  -1.330327693484763 1.938638984813805 0  0.2106653067452682 2.040805097078886 0  1.570796326794897 0.5715 0  1.334822181490566 2.081373939821734 0  -0.9303227889097604 1.033236710715967 0  -1.34639228476592 1.150776798768373 0  -1.570796326794897 0.1905 0  1.106697207481837 1.099709897393925 0  0.4137866939027022 0.2104288000383385 0  -1.570796326794897 2.0955 0  0.9761377489246634 0.4754251272674608 0  1.377108465632662 0.4605024587280874 0  1.108114944719677 0.7297638044096917 0  0.3695908229138113 1.285681859811955 0  0.9799112840676307 1.800306505551499 0  -0.001696842075803034 1.042028929293442 0  1.366537356420357 1.185723700290463 0  -1.385029840108318 0.47625 0  0.05842649915411911 0.6874537157920781 0  -1.183268988745763 0.4997334438341218 0  -0.6073502281622543 1.081347079085406 0  -1.026941765261019 2.031536576622642 0  -1.570796326794897 2.8575 0  0.8159726599830506 1.011928543199529 0  0.7652782693277244 2.849245002237192 0  -0.5252326280373281 1.520125074885265 0  0.7648326174724897 2.063743853392348 0  0.757099741434616 1.666331708950521 0  -0.1963495408493621 3.048 0  -0.005410422648647092 2.843333256403111 0  -1.395368347654653 2.19075 0  1.374446785945534 0 0  0.9817477042468103 3.048 0  0.1963495408493621 0 0  -0.1963495408493621 0 0  0.5890486225480862 0 0  0.1963495408493621 3.048 0  0.9817477042468103 0 0  1.374446785945534 3.048 0  -0.5890486225480862 3.048 0  -0.5890486225480862 0 0  -0.06865319188571758 2.471928549109083 0  1.159049337209348 2.838090892449816 0  0.5817075150535711 2.596909954318943 0  0.7656515661107315 2.455866896253367 0  0.9620790410056582 2.647119292933887 0  0.3676829480103987 1.68739481709134 0  -0.8886101495223063 2.878912500124773 0  -0.3317793704126089 0.1873756770788371 0  -1.383208664444332 2.577695923010364 0  -1.043597917648523 1.648216005744782 0  -1.362178343413552 1.546177620526679 0  -1.570796326794897 1.7145 0  -0.8462722504471433 1.648434957877788 0  -0.588076822054871 0.3899352838051667 0  1.570796326794897 2.8575 0  -1.570796326794897 0.9525 0  1.570796326794897 0.1905 0  1.570796326794897 1.7145 0  1.570796326794897 0.9525 0  -1.570796326794897 1.3335 0  1.570796326794897 2.4765 0  -1.570796326794897 2.4765 0  0.8103777117362174 0.287468585434799 0  -1.145334531235929 1.881885620422454 0  -0.8620560674467429 0.6361265362229395 0  -0.321688879263093 1.207848147265888 0  -0.7798551871678058 1.904240998338365 0  -0.4724954359209014 1.769587110195458 0  -0.667402576232105 2.495985359319255 0  0.5365063314111709 0.8945566719544227 0  0.1855702280441107 2.342745654422604 0  0.55510120733165 1.88540118775351 0  1.188295809121239 2.460939894898248 0  1.38587897409014 2.260870763688798 0  1.383978812419919 1.901097375082534 0  -0.2265735189171196 1.049795314962436 0  0.7387890113368257 1.246392780742437 0  0.5763234466275948 1.516457524623135 0  -0.203279258075353 0.4348372558382012 0  -1.179202350299698 1.523245956950107 0  -1.151844216720993 2.318990544544152 0  -1.410806081599612 0.6547540757597369 0  0.04190096621848406 2.108399609871347 0  0.5925649981629265 0.4343292987553075 0  0.2371113691258682 0.4102816185532077 0  1.334103818253725 2.657728219912091 0  0.9405077369493808 2.275181409651143 0  -0.633962040105568 2.669303984283053 0  -0.6045614816381242 1.904349918307267 0  1.159697673803787 2.079238591118184 0  -0.004643801590645341 1.347662554528907 0  0.3691400131247499 2.395423267764724 0  0.3855005143298051 2.055603978165229 0  0.01839821075864462 0.1788084577298442 0  -0.9568120219060965 2.61629404172056 0  0.1783135820912846 1.871116340262054 0  0.3649950158263953 2.745288921627024 0  -0.3142054567155264 0.5671999812317062 0  -0.4933549623779417 0.564740705097546 0  0.06092775470575962 2.685867440722903 0  -0.1801827362748675 2.337517890002858 0  -1.063355415037434 0.6386189748554 0  -1.205242865599393 0.8676070232612285 0  -0.4176020549597784 2.412196127179313 0  -0.3347051678178828 2.093252344225509 0  -1.427772711006951 0.2857500000000001 0  0.8835729338221293 0.1362887052191026 0  -0.6831011505337878 0.1389086130988801 0  -1.403875662049666 1.77648180985222 0  1.394165436236593 1.362588987767805 0  -0.5007942298153729 0.8700626692351643 0  -0.6093220848169366 0.7321530406295067 0  0.007534593095922887 1.760126887057542 0  -1.276272015520854 0.140425968067263 0  -0.7270478511000733 2.847016806985676 0  1.436331331726002 0.85725 0  -0.1770320080670663 1.927167796173981 0  0.7200726153501196 0.6345534912379586 0  -1.099983122078282 0.3577316115390257 0  0.2324759135153202 2.648405702327079 0  0.9054371869972004 1.582409569434113 0  0.5000672234640285 1.188708149930449 0  -0.340793734207542
[...]
<PointData  Scalars="Elastic Energy"> 
<DataArray  type="Float64"  Name="Elastic Energy"  format="ascii">2.6937538047430780e+03  1.5107914821235982e+01  1.5248167667272105e+01  2.6294874752987521e+03  4.2956395249380520e+01  5.4603527270518243e+03  5.2018567624987169e+00  4.3207266880186541e+00  3.5370975373358459e+02  4.5991747031674297e+00  2.0433111689922651e+01  4.6805221433626718e+00  2.6497327669848527e+01  2.2836783408878890e+02  1.7240033941655810e+01  6.2424382507318164e+01  2.2389366602707253e+02  2.6513397207502564e+01  1.8100881203989852e+02  3.7662572744778811e+02  1.2581086661053033e+02  1.7711595201159259e+01  1.3719268898643648e+02  1.8021452639294105e+02  2.0790572681901345e+01  8.5875837340205976e+01  1.5582621958835782e+02  9.4176087279291508e+01  4.3789994681453663e+01  9.8316128725043399e+01  1.1044460389532022e+01  1.7039263504403993e+02  1.0701694245872901e+02  1.0919510804131930e+01  2.1284853369155215e+02  1.6079532760080153e+02  1.7132748497733725e+00  1.2397140234093759e+02  1.1785382079878156e+01  8.0128568954015496e+00  1.5730801296357432e+01  2.1802134732709732e+01  3.1732605057826824e+01  1.1418035760634059e+02  1.9199243225687553e+02  8.5218268330586326e+01  1.5941032693255606e+01  2.5776287177460173e+01  6.7714663477165544e+00  8.5333971101072464e+01  2.2780311670971327e+02  1.9027345383333125e+02  2.0721887502074384e+01  8.4479294576937676e+01  1.0627065601485350e+02  3.1048038908399329e+00  7.0765899524778646e+01  4.1584879949236154e+02  1.7809581474172806e+01  1.5781363459034464e+01  1.7226386330799784e+01  1.2283022699252250e+01  6.4361606801853043e+02  6.9669406186122956e+02  5.5540662854654059e+01  2.3140591241892488e+02  4.4117527252812238e+01  3.5472118562063019e+02  8.2279647230952236e+01  1.3830393680423521e+02  1.4133003643804511e+02  8.3293126631236927e+00  1.6269546529817969e+01  2.8626032509049759e+02  8.4726278079273651e+00  2.2666192275145778e+02  3.3675313503548252e+00  2.1120661105841117e+02  3.5809123803296319e+00  8.5804902391983077e+01  1.4232465067357677e+02  2.2249179543205933e+01  1.5960793591457139e+02  1.0933392994500306e+01  5.1034581754970596e+01  2.7977704646900554e+02  1.5947008180411333e+02  1.5470187587782288e+01  7.9330803939256453e+00  1.7961903961528648e+02  2.5833854387220146e+01  2.9977871124948894e+01  1.7522189646504469e+01  6.3167677461061302e+01  6.4257966266024710e+01  7.2611437454315064e+00  4.0245991376149647e+01  2.8651187197359275e+02  5.3688834017089677e+00  1.8442118203807290e+01  1.7117651003614654e+02  4.8569915592424934e+02  2.5516991446240701e+02  4.3328945774767681e+02  1.2359904456138727e+01  2.2288822860423957e+02  3.1480662471586530e+01  2.7963399168977429e+02  2.1306231887612665e+02  2.3770141294378618e+02  1.6672355652991705e+01  5.1844716750220407e+01  3.0257477190017187e+01  6.8202980811464737e+00  1.1759332601060857e+01  3.4782947454119994e+02  3.8254937267514961e+01  1.1079174684693031e+01  1.3522853018703843e+01  7.2290585202320472e+01  2.9303865961025264e+02  3.1665945063831394e+01  2.9355653267081527e+02  1.1965769076896301e+02  2.6801859223273155e+01  1.6670150009754389e+02  1.4123558313511460e+01  3.2648327508875563e+00  1.1694743534450522e+01  1.2470600801929416e+02  8.0302183854563665e+01  2.6110271133311990e+01  1.9003331035067038e+02  1.6035004224258394e+01  1.6693957957914739e+02  2.4321739797008868e+02  2.3399222492381856e+01  1.1673781095643056e+01  1.3541006214916243e+02  1.4388460346353247e+02  1.3797400089437135e+01  7.5574366182695741e+01  2.6067741472592098e+02  6.4956907052815708e+01  2.5970831463697374e+02  1.6444146940255280e+01  1.0718559357184628e+02  7.7890972823876041e+01  1.0090603474810857e+01  1.4894765083176210e+01  2.2136994313881690e+01  3.7207142255099200e+01  4.3932940257423716e+01  1.9501918373972646e+00  1.3836452981805508e+01  2.7321953330564632e+00  3.7153778271050655e+01  1.9995940152116017e+02  3.3167080269353028e+02  1.0769091961015040e+01  1.3981781972802212e+01  2.2554035766478140e+02  7.1741122140503775e+00  2.0732852833059417e+02  1.8406284822851836e+02  2.0385700499633112e+03  1.4643922603948761e+02  1.1650050462585909e+01  2.1290731502604679e+01  5.2283239744963204e+01  1.4575503898175521e+02  5.3869198612653781e+02  6.4172825922893378e+02  1.1827092544924496e+02  1.3965577872846509e+01  3.8701497076352751e+01  3.4731432563769260e+01  3.5533939845774846e+01  1.0271129777868296e+01  3.6921839888520924e+02  6.9716769945551684e+00  3.7410169021622835e+02  3.9134243733770383e+01  9.9226798870555317e+00  3.8657953641659623e+02  7.7205294880572509e+01  2.1307642523388928e+01  4.6446855674833278e+00  2.5580901114014161e+01  7.7063142535512412e+01  7.1202246780356839e+00  3.7714616093886583e+01  3.1803167563755301e+02  1.5933498831805392e+02  1.3451012161022364e+01  3.4261253973720676e+00  1.8438764161678438e+02  3.9056949843263361e+01  1.5483519732244358e+03  1.8823361314916450e+01  1.4917092774657940e+01  2.6529735223437410e+00  1.9493237907761994e+01  1.1799641724405063e+01  2.7672204694072917e+02  2.8756468369038834e+02  4.5447325524636515e+00  1.5126266029568521e+02  1.6126824763655101e+01  5.9329399013034788e+01  8.6400448066549899e+01  2.0592182524420807e+01  5.1957810356468794e+00  2.8374215720617718e+02  2.8483090990286581e+02  1.1103042241473291e+01  2.1982431570811946e+02  1.6728641323807460e+02  3.7134727145892334e+01  1.2247098069686947e+02  2.2332124150619242e+02  4.1709063965400269e+01  1.0337640858548673e+02  6.0870798324482514e+01  2.2759850720210551e+02  1.4868853701316738e+01  3.6851653533307990e+02  4.5265371199138336e+01  8.5236400063670061e+01  3.7287754354668380e+02  9.7988062429171876e+01  1.3935985774975169e+01  1.1764233320546257e+01  1.9883282534040978e+02  3.6027925185463835e+02  1.1224767518977563e+02  9.7312354825126803e+01  1.3599146304041891e+01  3.1484743733179350e+01  2.7405659467510043e+02  7.7708487571222008e+01  2.1621034953610581e+02  1.5409860609610578e+02  5.0335132257807794e+02  2.8892271847205296e+02  2.4170862774444144e+00  4.7318221746401958e+00  8.0684780575406592e+01  1.4383656950825392e+02  1.4583375913746456e+01  3.0834804034803955e+00  8.3364617384022601e+00  1.6746551875982522e+01  9.3955974461647607e+00  2.6318805192472610e+02  1.8194891045340705e+02  3.6876960704854667e+02  1.1326961577486731e+01  1.4134558758918335e+01  1.6164471636265748e+01  2.7660815456497352e+02  5.4278607652789660e+01  5.2159265843431131e+00  2.2826450868435515e+02  2.1624421638658666e+02  8.5033329875085897e+01  1.1134656125604393e+02  1.4584057359711502e+02  1.4654636183544932e+02  8.9879160229116941e+00  1.3896041097850463e+02  5.8831016900212578e+00  1.7417807633790974e+02  1.8497619228508111e+02  2.1180915757297419e+02  5.1579558721244174e+00  1.5275597819485428e+01  6.5864578877889963e+00  5.3336286284144769e+00  9.6387020802827379e+01  7.0627638213909705e+01  1.1325076829728334e+02  2.3742184520806731e+02  8.6093840545960930e+01  6.9627091086406836e+01  9.9086643584478480e+01  1.3680456326538737e+02  3.0275290677693345e+00  1.3391357239234890e+02  1.3659740761244905e+02  1.6008103503807146e+01  -6.2304618985376981e-01  9.4482663702440970e+00  1.8950465000813767e+02  3.4556425892477688e+02  6.8284452374210119e+01  2.3441337549474289e+02  4.8008316836056458e+01  4.4325954702248280e+00  8.4263396092723625e+01  4.1544601650105470e+01  6.7061292226792474e+01  7.6456776634727124e+00  1.4999569533192052e+01  2.2267629138486717e+02  2.9062672833825900e+02  3.6368620339150432e+01  3.5665731930876120e+01  1.6574799075860081e+01  8.1337086939424623e+01  1.6277796450974276e+02  1.0334299493637159e+03  6.2996382117850908e+02  2.3666049588514309e+02  6.7545901247775319e+01  6.3823701011543932e+01  9.0849777721523228e+00  1.1349872649888590e+01  1.3765885902768966e+01  1.4905441436702313e+01  4.5211287839187797e+01  4.4129248426820844e+01  1.3613654018798670e+01  2.0736968890485812e+02  5.8417453275534356e+01  1.3612036684436825e+01  5.6938983014247903e+01  1.9103720173142440e+02  6.9274369581460595e+00  8.0402389678088616e+02  3.3266705050400816e+02  2.5864785482800551e+02  3.6652328527703290e+01  4.1887394071949615e+01  1.9847076687927721e+00  2.6708099649995543e+01  2.1594375433095752e+00  3.0666066931786020e+01  3.1483677074765300e+01  4.1782755412567660e+01  7.7306327083736015e+00  8.7716196354283483e+01  2.4094652583869748e+02  2.3665033582704858e+01  2.0418358100170146e+01  1.9712055299327031e+02  2.1562920678552422e+02  8.3548934152788323e+00  5.5964284936403956e+01  3.4722696228458278e+02  1.3405898526778017e+02  1.0265735303124488e+01  3.9917089765687173e+01  2.2333654525245198e+01  7.2865345530080765e+02  1.1714194348633126e+02  2.0322552141439539e+02  7.4148012306490443e+01  1.6700972979320859e+01  1.3934072729692190e+01  4.1693940237619884e+00  5.0873885012627966e+01  1.1344556188448225e+02  1.2052769986558868e+01  3.7015959381281768e+01  1.3208609858092518e+02  1.5281892152213103e+01  6.9890979416283141e+00  6.8519941933551721e+01  8.0432390946906196e+00  1.1665179464772675e+03  1.7655339693653808e+01  5.4002445134004944e+00  3.8144891925131520e+02  4.1320667554348830e+02  2.3942648567444880e+02  3.5416487560483212e+01  1.9438692352788041e+00  2.1258828913417818e+02  1.1170583260071034e+01  1.7910576484055517e+02  3.4257350076367761e+00  1.9391173573773553e+01  5.6598099488580537e+01  2.1281794339474115e+02  2.8769660810974460e+02  1.5194218184957991e+01  3.3406748499466306e+02  5.7504981191543312e+00  7.7554086309009776e+01  1.9451554839302906e+02  2.1738999783583890e+02  1.6070937466393772e+02  2.2921267758173846e+02  1.4300949134700349e+02  4.4202957703940182e+00  1.8133188440645830e+02  1.7509576203195873e+01  3.7738776066806395e+01  2.1585826733766908e+01  2.9035187512481230e+01  1.5566870819369452e+01  4.6737842117815070e+01  7.5378257241573872e+00  8.9738161876599385e+00  1.2020361795117850e+02  1.7549576246588921e+02  2.5598856623396196e+02  1.5824920297381832e+01  3.9999210806283818e+00  2.8315688018405016e+01  1.5265707242811888e+02  3.6244694134188290e+02  5.4530648450621069e+00  1.0676042221937513e+01  2.2455257956955116e+01  1.2863858544060802e+01  3.6876750701305042e+01  5.2253396733114812e+01  3.0677768500788144e+01  2.0507224392741526e+02  2.9576826168482961e+00  1.9577783270151448e+02  4.4502187059529138e+02  2.9709982314496287e+01  2.7294607155790823e+02  7.9647738110861681e+01  7.0640314103131360e+01  1.0923220407130604e+01  7.4621598466606551e+00  3.0624371395312004e+00  8.4898007272600271e+00  5.3829556273584288e+01  3.3958615702359673e+01  1.3253578309330808e+02  2.2216506200170011e+02  1.2179696864909768e+02  2.5089765352626532e+02  1.2984348002662216e+02  1.8448163452728264e+02  2.8112772945164772e+02  2.7010959377251282e+02  7.1444099026596746e+00  1.0674024241548841e+02  2.3413256027693201e+01  1.8230532061283427e+02  1.8952214057553380e+01  2.7006038683771898e+01  4.3422262006404097e+01  1.0457160537533839e+02  2.7184391223580047e+01  3.5511822200702534e+02  3.3781895693200295e+02  1.5635382306096698e+01  6.2731172342099860e+01  3.4738471615856662e+02  9.9891231642955162e+01  1.9282388044544751e+02  1.6103277364448367e+01  4.8723769500369421e+01  1.8501786360591591e+01  2.5899647642663798e+01  1.9085182302734171e+02  1.6482258454205746e+02  3.2854046368894518e+02  1.6586382431435652e+02  9.7912838133205298e+01  4.8638505264421077e+01  2.0154271099827290e+02  2.3180625401539200e+02  1.9129148239457538e+02  1.3191376199128945e+02  6.5769592583026792e+01  1.3448364810562771e+02  1.2054602915066553e+02  2.0645510787134395e+01  2.5354369887622947e+03  2.3999419187798250e+02  3.0073894757224252e+03  1.9035056632086071e+02  1.4736537966514217e+02  9.9335517562642650e+00  1.8748279544997718e+01  1.2703433185402594e+02  2.1796687192670467e+02  2.0020312218913924e+02  1.0303229017210857e+02  1.0941900413931243e+01  2.8737931376460637e+02  1.7266184483334744e+01  1.5226012986975428e+02  1.6340335810529613e+01  1.8977920960061205e+01  2.0351741934198913e+02  7.3347344255666130e+01  4.1359085403955743e+02  6.2530228353641002e+00  7.5066288186086922e+01  5.7102988776000132e+01  1.7707750041189456e+02  3.2509102754754548e+02  1.9323291481924812e+02  1.9498244154771575e+02  2.7930238214572864e+02  1.4477366020398024e+03  7.4161350848231589e+00  3.1503666898811997e+02  6.8317401176559329e+01  1.6561938598919662e+02  1.5123414346083172e+02  1.5535699270485051e+01  3.6998671267698775e+01  9.6889300926803642e+01  3.0947518961264046e+02  7.3305801312600153e+01  7.4272416613010392e+01  7.4930911269998717e+00  8.2127085287766270e+00  1.4651551954821193e+02  1.8472501117085656e+02  2.2174866982710364e+02  2.1756614455320187e+02  3.6052674183413671e+01  5.4278162108041151e+01  1.9564743028909965e+02  1.2933569299557089e+02  1.3077989627255697e+01  1.3544077721481856e+03  3.9165639192715545e+01  1.1333568982354615e+01  1.5396695877058322e+01  1.9906943246205699e+02  2.9047851557821282e+01  4.5582780645501684e+00  2.6409240916214880e+01  2.1038174210911873e+01  4.0338364528750577e+02  8.3354389591533984e+00  4.4803141350373314e+00  4.7145770980567292e+01  1.4908424418954054e+01  2.1826341162597512e+01  2.8801517271042702e+01  6.3756505487930625e+01  4.6508496122191341e+00  1.7122667784976770e+01  2.6123830031457558e+01  4.8029941149046467e+00  3.6682994623436457e+01  2.3364059214730553e+00  3.9875938680483496e+00  3.4082213514304018e+00  2.5376799367668363e+00  2.7194454991541978e+01  2.4515141703353910e+02  4.7164989848584035e+01  1.6647298441623758e+02  4.8015366040098641e+01  1.3083313258312339e+01  2.5182558748177215e+01  6.3932019307775025e+00  1.4495148451241425e+01  1.6538704677361764e+01  2.6777845581406268e+01  1.2895125608605412e+02  1.5916048665560711e+01  1.5320118355319332e+01  1.5403169445672633e+01  1.3260296541602688e+01  1.0364032485984785e+01  1.0785684502543491e+01  1.5709677855175929e+01  6.5550434207644734e+00  3.5287112636660868e+02  1.4496662406210927e+01  3.3364967040116613e+00  1.6918291645814620e+01  1.2227541625704981e+02  4.2605481564629440e+02  3.3011852862694047e+02  1.7807456837716725e+02  1.8881816401944013e+02  1.1019107363628017e+01  1.2301592694144475e+02  5.8349318358602433e+00  4.5696027973458513e+01  2.9556802468001695e+02  6.7769917890885793e+01  1.9397881228845077e+02  2.1637798904710099e+01  1.3043484302536596e+01  4.9069484911176829e+02  5.7668965879000154e+02  1.1520858379037874e+01  1.9233374707989773e+02  2.2910731393612693e+02  2.2921001301527875e+02  1.3953260452607651e+02  3.4930584457048447e+01  3.2294662284061033e+00  1.4144640132843579e+01  1.4631888614966165e+01  3.4788083272213299e+02  1.8294504587789905e+02  4.1297591409006529e+00  1.7168815712328384e+02  2.2442713008935266e+02  2.8910364094009782e+00  1.0535912077303868e+02  1.4587676372943415e+01  4.7309478810624363e+01  3.5776207143674760e+01  1.5986553823875417e+02  6.3778710718139322e+01  5.7137515348073959e+00  2.6275872866921706e+00  5.1600721447775717e+00  1.3259531777278642e+02  7.3603941034478183e+01  1.6289341178646339e+02  1.6001508926709985e+01  1.0903119286846763e+02  1.4076691874471965e+02  1.9745310938252277e+02  6.7370410359723669e+00  8.6303619517615516e+01  6.8595913048955479e+00  3.7556187246913069e+01  1.5024826394429240e+02  2.7278318120390505e+01  1.0233068576456347e+02  1.4677327744218701e+02  4.4726345678015225e+00  3.9166857117370711e+02  3.0643316412182475e+02  7.0928270528982353e+01  6.4302775624060871e+01  7.6748395654315516e+01  2.8889172911234649e+01  3.1589744801226988e+01  9.9174874032629873e+01  6.3786078204546598e+01  8.1664408420326442e+00  2.9485121875988284e+02  1.9327436231227249e+01  9.7328403786544115e+01  2.9671956172280244e+02  2.7370211475228562e+01  1.2006260007359840e+02  3.5966228236430800e+02  3.6233904578149833e+01  9.6584795519209297e+02  7.0719252603102825e+02  3.2286183712591151e+02  4.1345213874956265e+01  4.6501704146413401e+00  9.0415527077718671e+00  5.2978332768395742e+00  1.5237425805785541e+01  4.4634681386051881e+01  1.2804983364217071e+02  2.8129359527991820e+01  6.7289918654778873e+01  1.8084902407600407e+02  4.9107780991536714e+01  4.5415906721420242e+01  2.6680166994168804e+01  1.3059877576760593e+03  1.2979958359811929e+01  6.7428599329596395e+00  5.1147408783310084e+01  2.6040079355581003e+02  9.0204396895447250e+00  1.2721096529116624e+01  6.0049457659145187e+00  5.0978206406026265e+00  1.4564466150716605e+01  1.5346275599353396e+03  3.0178474472468338e+01  3.2203215452474069e+02  1.5437948003834748e+01  3.1826557217943705e+01  4.9434736362398375e+01  1.2399365016691898e+02  1.3964506499103177e+01  2.2967198704835945e+00  4.2653073049183519e+01  3.4954529216465829e+02  3.1616873878863726e+02  2.2561296819949268e+02  1.4093104017771036e+01  1.8675751118793352e+02  2.3503125844224794e+01  3.5977302550458290e+01  4.3663786163723451e+01  5.7318138584953688e+00  7.3562277262769470e+01  1.0552659614766945e+01  4.5060948538472534e+00  2.3204568702671661e+01  8.4808085041223833e+01  6.2874090882816148e+01  1.2388270834089975e+02  1.4498499180815952e+02  6.5694592957282396e+01  8.0206862822736397e+01  1.6459001262780937e+01  1.0242227838776488e+01  4.1781603552837590e+00  2.9481883843032684e+00  1.6822713071509110e+01  1.5596797803821817e+01  1.4977760726436850e+01  2.9070794836012453e+01  2.0189648070820581e+02  5.0609441934255393e+01  1.9531606435800126e+02  9.3368000159638655e+01  4.5574577975476423e+01  2.9176429103405912e+01  1.8684659041803101e+02  1.8077615393549644e+02  1.7666655176493055e+02  1.4868013982395430e+01  4.0500153330277957e+00  2.1100525892511442e+02  2.3091463509660222e+00  2.8329307661515939e+00  4.1980064268764232e+02  9.0493649584971502e+02  2.4029215639580739e+03  1.6078630793255581e+01  1.7884426260300337e+01  1.8508295722908009e+01  1.9088931563598237e+01  1.7913649029206010e+01  1.5468276000809530e+01  1.5288252735888175e+01  2.3755211159029272e+01  2.4036576526898788e+01  1.4660549595241939e+01  1.9459780470944281e+02  1.4704565393840280e+01  3.0851134179265017e+01  8.6008598716097868e+00  2.0178163557237081e+01  8.8009414304749953e+01  1.0602501467873978e+02  1.4427027013169598e+02  7.6549534141243583e+01  9.2252154027805400e+00  1.6213065190286059e+02  9.3137015284093057e+00  2.0823961065879064e+02  2.0100901709361295e+01  6.2132519273458895e+00  2.3218120554108717e+02  2.0517933853846401e+01  </DataArray> 
</PointData> 
</Piece>
</UnstructuredGrid>
</VTKFile>