<?xml version="1.0"?>
<VTKFile type="UnstructuredGrid"  version="0.1"  >
<UnstructuredGrid>
<Piece  NumberOfPoints="758" NumberOfCells="1386">
<Points>
<DataArray  type="Float64"  NumberOfComponents="3"  format="ascii">-1.570796326794897 3.048 0  -1.570796326794897 0 0  1.570796326794897 0 0  1.570796326794897 3.048 0  0 0 0  0 3.048 0  -1.570796326794897 1.524 0  1.570796326794897 1.524 0  -0.04609926118424437 1.524 0  0.7853981633974483 0 0  0.7623485328053261 2.262242601661362 0  -0.7853981633974483 0 0  -0.7853981633974483 3.048 0  0.392699081698724 0.7745759241961347 0  -1.570796326794897 0.762 0  -0.8084477939895706 2.0955 0  -0.68277245543452 0.8915343570675713 0  0.7853981633974483 3.048 0  0.778743707341909 1.468410948960538 0  2.780093748954961e-16 2.285302774973185 0  -1.570796326794897 2.286 0  1.570796326794897 0.762 0  1.570796326794897 2.286 0  -0.9375370967763674 1.47348297960658 0  0.9831575747762593 0.9003629142671278 0  -0.3926990816987241 0.4064697549061488 0  1.177419588818055 1.905 0  0.3692901340097942 1.880893989147954 0  -0.4920225169641509 2.564371687128368 0  0.3926990816987241 3.048 0  1.178097245096172 0 0  1.155705348811136 2.643920532523289 0  -1.178097245096172 3.048 0  -1.178097245096172 0 0  -0.1391296372266528 0.8873724190154949 0  -1.10527745318919 2.528282743051346 0  -0.9817477042468103 0.4742759268549471 0  -0.3416666987802651 1.923944646262223 0  -1.570796326794897 1.905 0  -1.156555306160469 1.030861936336814 0  0.7648449098493205 0.4764142032227 0  0.3926990816987241 0 0  -0.4820376416180818 1.326151321396512 0  0.06374421723344185 0.4545169930886408 0  0.1972735722393064 1.163324878565267 0  0.3900417218314142 2.566922767651637 0  1.570796326794897 0.381 0  1.188877612935585 1.295195418509834 0  1.179914028402171 0.5308585702661928 0  0.7660075594126428 1.865233039449035 0  0.6330293131838399 1.095171663968746 0  -1.201232463242587 2.144287146570887 0  -0.3926990816987241 0 0  -0.3926990816987241 3.048 0  1.178097245096172 3.048 0  0.7684409382397209 2.649499271873753 0  -1.236954997304436 1.7145 0  -0.1088573452899617 2.666651387486592 0  -1.570796326794897 1.143 0  -1.570796326794897 0.381 0  1.570796326794897 1.143 0  1.570796326794897 1.905 0  1.570796326794897 2.667 0  -1.570796326794897 2.667 0  -0.6730839067294777 1.743003792473746 0  1.199831389396789 2.275437921225198 0  0.3936837537618041 1.495643752599615 0  0.01539369169800942 1.928544709491661 0  0.4156551272669651 0.4219033286010089 0  0.3401546043708642 2.225103550856524 0  -0.3379897306391274 2.262671266279809 0  -1.23624174049596 0.7000907110925838 0  -1.265224057170889 1.360131453617764 0  -0.1224339018241312 1.210043725539656 0  1.289286200625578 0.9918698881707442 0  -0.7751142346211329 1.197848666814478 0  1.003546186550495 0.2660297686099683 0  0.1963495408493621 2.808538634159524 0  -0.8079023568959116 2.703551618159924 0  -0.3480226984353056 1.610059855391589 0  1.075147893506229 1.598068412087719 0  -0.8290627893979112 2.399544545867518 0  0.6965048925255637 0.7972100472372819 0  -1.257765094876752 0.3107645483825858 0  -0.6724835324263325 0.5684215760013651 0  -0.3995059642389676 0.7173610149075536 0  0.9136951972244611 1.187564504803626 0  -0.964259350608907 0.8095514380783081 0  -0.7565990314517038 0.2897049735129544 0  -0.9603859887840651 1.834914433810327 0  -0.1457055965762301 0.2521630699436873 0  0.1963495408493621 0.2041911848053476 0  0.6241974196550791 0.231695999252114 0  -0.4098815011312292 1.029160072548571 0  0.9592800715482012 2.452820690856482 0  0.9648684169153161 2.840751931000357 0  0.5890486225480862 3.048 0  0.164631037784102 1.698913854044779 0  0.5664480837073581 2.070920238540226 0  1.374107957806476 1.7145 0  0.9861079629544779 2.102471438422718 0  -1.374446785945534 3.048 0  -1.288827800789186 2.762781313597598 0  1.353232957571468 2.835634774483438 0  1.302158670506274 0.2650078124691045 0  0.1394669809465775 0.8907702620243092 0  -0.5631487221059602 2.830992231257464 0  1.372837635547072 2.483038902756259 0  -0.1493395228831287 0.618617259260858 0  -1.32327048447753 2.378769394323546 0  0.56080204725298 1.699622905297025 0  1.570796326794897 2.0955 0  0.5403456747786348 2.786446773498672 0  -0.9817477042468103 0 0  -0.5847039960246873 2.326882432521036 0  0.1225428891326576 2.526494255738436 0  -0.9817477042468103 3.048 0  -0.5522901559753841 2.071668786267058 0  -1.370864794258017 0.9075071715671403 0  -1.043891045637083 1.250611220450313 0  -0.1652643923634778 2.09141301924679 0  -1.044446740946883 2.764982067459552 0  -0.1610370079820225 1.763280243096074 0  -0.3136912237752232 2.810498886211121 0  0.5400974078002052 2.370472734822523 0  -0.7009161718414544 1.427243880175582 0  0.902907438200502 0.6735032943420574 0  -0.9879196222361604 0.2371379634274736 0  1.319268546233604 0.7412771512308228 0  0.5578373583610097 0.608241627784878 0  0.5756483102040615 1.332636919938113 0  -0.5281701577409 0.2032348774530744 0  -0.266729509930448 2.489223923247521 0  -1.570796326794897 0.5715 0  -0.2430656531629531 1.405631921096758 0  0.253622337931223 0.5884397663452474 0  1.284044721043478 1.50372037617638 0  1.570796326794897 1.3335 0  -0.9904333867980613 2.235882060371517 0  0.9871146764618406 1.395690276854986 0  -1.374446785945534 0 0  0.3981951765262902 1.020833864419675 0  0.1670583512016766 1.405384478716078 0  -1.330327693484763 1.938638984813805 0  0.2106653067452682 2.040805097078886 0  1.570796326794897 0.5715 0  1.334822181490566 2.081373939821734 0  -0.9303227889097604 1.033236710715967 0  -1.34639228476592 1.150776798768373 0  -1.570796326794897 0.1905 0  1.106697207481837 1.099709897393925 0  0.4137866939027022 0.2104288000383385 0  -1.570796326794897 2.0955 0  0.9761377489246634 0.4754251272674608 0  1.377108465632662 0.4605024587280874 0  1.108114944719677 0.7297638044096917 0  0.3695908229138113 1.285681859811955 0  0.9799112840676307 1.800306505551499 0  -0.001696842075803034 1.042028929293442 0  1.366537356420357 1.185723700290463 0  -1.385029840108318 0.47625 0  0.05842649915411911 0.6874537157920781 0  -1.183268988745763 0.4997334438341218 0  -0.6073502281622543 1.081347079085406 0  -1.026941765261019 2.031536576622642 0  -1.570796326794897 2.8575 0  0.8159726599830506 1.011928543199529 0  0.7652782693277244 2.849245002237192 0  -0.5252326280373281 1.520125074885265 0  0.7648326174724897 2.063743853392348 0  0.757099741434616 1.666331708950521 0  -0.1963495408493621 3.048 0  -0.005410422648647092 2.843333256403111 0  -1.395368347654653 2.19075 0  1.374446785945534 0 0  0.9817477042468103 3.048 0  0.1963495408493621 0 0  -0.1963495408493621 0 0  0.5890486225480862 0 0  0.1963495408493621 3.048 0  0.9817477042468103 0 0  1.374446785945534 3.048 0  -0.5890486225480862 3.048 0  -0.5890486225480862 0 0  -0.06865319188571758 2.471928549109083 0  1.159049337209348 2.838090892449816 0  0.5817075150535711 2.596909954318943 0  0.7656515661107315 2.455866896253367 0  0.9620790410056582 2.647119292933887 0  0.3676829480103987 1.68739481709134 0  -0.8886101495223063 2.878912500124773 0  -0.3317793704126089 0.1873756770788371 0  -1.383208664444332 2.577695923010364 0  -1.043597917648523 1.648216005744782 0  -1.362178343413552 1.546177620526679 0  -1.570796326794897 1.7145 0  -0.8462722504471433 1.648434957877788 0  -0.588076822054871 0.3899352838051667 0  1.570796326794897 2.8575 0  -1.570796326794897 0.9525 0  1.570796326794897 0.1905 0  1.570796326794897 1.7145 0  1.570796326794897 0.9525 0  -1.570796326794897 1.3335 0  1.570796326794897 2.4765 0  -1.570796326794897 2.4765 0  0.8103777117362174 0.287468585434799 0  -1.145334531235929 1.881885620422454 0  -0.8620560674467429 0.6361265362229395 0  -0.321688879263093 1.207848147265888 0  -0.7798551871678058 1.904240998338365 0  -0.4724954359209014 1.769587110195458 0  -0.667402576232105 2.495985359319255 0  0.5365063314111709 0.8945566719544227 0  0.1855702280441107 2.342745654422604 0  0.55510120733165 1.88540118775351 0  1.188295809121239 2.460939894898248 0  1.38587897409014 2.260870763688798 0  1.383978812419919 1.901097375082534 0  -0.2265735189171196 1.049795314962436 0  0.7387890113368257 1.246392780742437 0  0.5763234466275948 1.516457524623135 0  -0.203279258075353 0.4348372558382012 0  -1.179202350299698 1.523245956950107 0  -1.151844216720993 2.318990544544152 0  -1.410806081599612 0.6547540757597369 0  0.04190096621848406 2.108399609871347 0  0.5925649981629265 0.4343292987553075 0  0.2371113691258682 0.4102816185532077 0  1.334103818253725 2.657728219912091 0  0.9405077369493808 2.275181409651143 0  -0.633962040105568 2.669303984283053 0  -0.6045614816381242 1.904349918307267 0  1.159697673803787 2.079238591118184 0  -0.004643801590645341 1.347662554528907 0  0.3691400131247499 2.395423267764724 0  0.3855005143298051 2.055603978165229 0  0.01839821075864462 0.1788084577298442 0  -0.9568120219060965 2.61629404172056 0  0.1783135820912846 1.871116340262054 0  0.3649950158263953 2.745288921627024 0  -0.3142054567155264 0.5671999812317062 0  -0.4933549623779417 0.564740705097546 0  0.06092775470575962 2.685867440722903 0  -0.1801827362748675 2.337517890002858 0  -1.063355415037434 0.6386189748554 0  -1.205242865599393 0.8676070232612285 0  -0.4176020549597784 2.412196127179313 0  -0.3347051678178828 2.093252344225509 0  -1.427772711006951 0.2857500000000001 0  0.8835729338221293 0.1362887052191026 0  -0.6831011505337878 0.1389086130988801 0  -1.403875662049666 1.77648180985222 0  1.394165436236593 1.362588987767805 0  -0.5007942298153729 0.8700626692351643 0  -0.6093220848169366 0.7321530406295067 0  0.007534593095922887 1.760126887057542 0  -1.276272015520854 0.140425968067263 0  -0.7270478511000733 2.847016806985676 0  1.436331331726002 0.85725 0  -0.1770320080670663 1.927167796173981 0  0.7200726153501196 0.6345534912379586 0  -1.099983122078282 0.3577316115390257 0  0.2324759135153202 2.648405702327079 0  0.9054371869972004 1.582409569434113 0  0.5000672234640285 1.188708149930449 0  -0.340793734207542
[...]
<PointData  Scalars="Elastic Energy"> 
<DataArray  type="Float64"  Name="Elastic Energy"  format="ascii">2.1607934853841160e+00  2.7239213379601267e+01  2.7261829864571748e+01  1.8207643835939968e+00  6.5445959936224142e+01  1.4167587864729373e+03  1.4712222267940295e+01  1.4829779081669066e+01  1.3204597425983861e+01  2.3216103427020069e+00  1.1023253595480841e+02  2.3426508458724649e+00  5.5322691562197967e+01  1.5042382264092867e+01  2.1630735328396437e+01  6.5328785460875423e+01  7.1652544353895156e+00  4.9223852946200353e+01  8.8459840390594078e+00  2.1823655133859441e+02  7.8792969405847506e+00  2.1768707782033115e+01  8.4267430156690999e+00  4.5894974651775984e+00  4.5769673322947577e+00  1.9306669479664443e+01  4.0275132907716573e+00  9.5493452302982433e+01  1.3879137822624024e+01  5.3228483548441929e+01  1.8991642839278136e+01  4.1223788743154437e+01  8.7591763276381769e+01  1.9047307113714425e+01  1.8612010623135159e+01  4.8178191487733571e+01  7.0251298799275936e+00  9.7155259926567325e+01  1.1229515096762785e+01  8.4557538437624320e+00  3.4839274523427020e+00  1.9511300650925637e+01  1.2845141124381565e+01  3.4585713130027685e+01  1.3172942912754459e+01  2.0210486153461172e+01  2.4619214567837439e+01  7.4700260015318616e+00  1.4304046828029158e+01  3.0788882550517449e+01  9.4902555082687208e+00  4.3401722735585269e+00  1.9180208488477472e+01  5.2305524038798332e+01  8.6394504727647615e+01  1.0296675728795630e+02  6.0664079604044732e+00  2.3439048632675301e+02  1.8709682119604579e+01  2.4618805745997395e+01  1.8485118665268100e+01  1.1471347503492600e+01  3.0481122250802342e+00  2.8568299985014094e+00  2.8298090692220654e+01  6.1509615952221761e+00  1.9095628498918170e+01  1.2024558187803819e+02  1.7570521182382240e+01  3.6707976856221975e+01  3.7700697834454786e+01  1.4720917094407232e+01  9.4680021908073417e+00  1.2634725471457246e+01  1.3795711638457476e+01  7.0464525167630949e+00  9.7806713126138494e+00  1.4448793729656097e+02  1.2041068157287617e+02  3.0519540194955393e+01  3.6255961329242030e+00  1.0705800672306960e+02  6.2217200574643794e+00  1.9816644172054371e+01  5.4323946568376211e+00  1.5329187313565196e+01  4.4624755397386755e+00  4.5302765922339434e+00  3.3772795801711197e+00  6.9309524981398765e+00  4.0629504722896549e+01  3.8590688040405659e+01  5.2666487073968762e+00  1.2516089022553652e+01  8.1747235204141319e+01  1.4360081739748026e+02  1.7413195918172050e+01  5.7550754522061744e+01  1.1415020080777536e+02  9.9524470909991685e+00  1.8769919931383452e+01  1.3604204926884890e+01  1.9196169882324583e+01  1.0304938649357471e+01  2.1490801081830092e+01  1.8642683754973991e+01  8.9264866519179957e+00  4.4812457965787766e+00  2.5960953537606279e+01  4.7431749933705492e+00  3.3511012010109205e+01  9.8320304170242210e+00  7.6096597924870615e+00  1.0538514709450771e+01  9.0943350553682421e+01  1.9852832900899512e+02  1.2896682499177444e+02  1.1362176434956665e+02  1.7398089443404842e+01  4.4518372052222670e+00  1.1152762998564482e+02  1.1102200727663001e+02  8.2329400765636919e+01  6.4575173110761213e+01  5.9011313974946539e+01  1.0625750210014537e+01  4.0453799947246782e+00  9.2299819250460651e+00  1.7294176503638827e+01  9.7489069528177730e+00  1.1948129760365225e+01  9.5132828054070551e+00  8.1300244627693729e+01  2.2812488144797669e+01  1.3570713958756935e+01  2.3272170851186303e+01  8.9964535183000649e+00  1.6621850493595581e+01  3.3898654652893761e+01  4.0002606291533169e+00  2.4507457406871591e+01  1.2844147134026878e+01  1.2499354724876687e+01  7.1175656858308916e+00  8.5845017338333960e+01  2.3034009711457948e+01  6.3379176736260163e+00  4.0719432477021105e+00  1.4277005171128657e+01  2.4922937408524572e+01  6.4078061568838507e+00  1.8405686629668129e+01  9.8354621493434014e+00  6.8691673536196030e+00  2.1599261075633702e+01  9.2994247368041751e+00  1.2648915277246831e+01  4.9038051057280203e+00  1.5959250062223314e+01  1.4622670009937300e+01  2.1647403373717516e+01  2.5436314369226359e+01  1.4825535079351287e+01  9.8682012628644564e+00  9.4874017951833025e+00  1.0998001111794180e+00  5.0810613634902690e+00  6.1548271962172656e+01  1.8780428308461978e+01  6.8473981527098829e+01  1.4089072456630738e+01  1.9795199608029350e+02  3.3380468679474819e+02  6.8146663406119776e+00  2.4602311289453645e+01  1.2888966298466352e+02  4.9649085324810031e+01  5.0016608561818465e+01  2.3827443421613608e+00  1.7311917857724981e+02  1.0696564931775791e+01  1.2793174783909915e+01  2.0329264203331363e+01  2.3569576071056089e+00  2.2191112490406815e+02  7.3611515565600740e+01  3.4340376480247073e+01  1.1482725404704823e+02  1.1632938118239500e+02  4.3342465661680038e+01  1.1960185652440713e+02  2.5947472975791779e+01  4.3699977377126835e+00  3.6032572264997058e+00  1.1065644802884307e+01  1.2961895792415705e+01  8.4902432814279418e+00  7.7501768992796922e+00  1.2894713170280907e+00  2.0253190696142358e+01  2.4826783690659290e+01  1.2908463633030570e+01  2.0523857492248347e+01  1.6852463642703434e+01  5.7429058472442751e+00  5.3661485642835585e+00  3.7206586399234070e+00  3.7353368941252074e+00  3.6443697284515588e+00  1.2343601788226961e+01  3.3631049004038779e+01  5.6043799869154228e+01  8.6249438119359041e+01  1.0843659140076031e+01  1.3985109904484875e+02  7.5172161746478992e+01  1.5674312475880431e+01  6.2146579996831557e+00  8.8540595754480407e+00  1.4217315656230603e+01  8.0433712348780499e+00  1.6700075215247274e+01  3.0160029125756001e+01  5.6624796979664440e+00  1.2931343649797258e+01  2.0686478997055268e+01  1.9908844484455733e+02  7.7522692195107510e+00  2.9487077371804038e+01  7.6697496104508485e+00  5.5214176707989026e+01  4.2145371876869049e+01  7.2996327830657492e+01  3.8577194032716320e+00  1.0640301878490385e+01  2.6926304917111299e+01  7.8855319389918321e+01  4.7032706107789842e+01  1.2453257124287560e+02  1.0003538466118033e+02  3.3173730175740623e+01  2.1158984555738215e+01  1.2586015388491942e+01  2.6926093456113432e+02  1.4431300693790485e+02  8.4467224706964572e+00  1.1749237298472183e+01  2.2180371037487387e+01  6.1089005194617933e+01  2.4128515587989380e+01  5.4478804549067439e+00  2.5001603958244836e+00  1.0270687956064817e+01  1.3693430425534915e+01  1.1609010289049312e+01  8.2602386054182411e+00  8.6851053033153192e+01  2.0255910796980693e+01  4.7249564704508280e+01  1.9595587528339045e+01  9.7589131058604266e+01  4.6994749593091809e+00  1.3089008254272416e+01  1.2536864564889856e+02  5.5467368930284513e+00  1.1776849070324069e+01  4.3828859629683222e+01  2.0745986065115126e+01  3.7201258285630368e+00  3.3687426357247916e+00  2.0724041990716920e+01  1.1501662155821074e+02  1.0712482213745984e+01  6.0750682735672292e+00  6.2411636800343082e+00  8.4826808705785286e+00  8.3714744571496169e+00  1.3247948270760547e+01  1.3164295667773130e+01  1.5662127199497741e+01  5.0930820221312612e+00  5.3397580269978924e+01  2.0842184315851508e+01  8.0868379470979406e+01  4.5101229542973673e+00  1.5396905668802246e+01  1.9999861097413227e+01  4.1804897111741433e+00  6.8218466723688636e+01  1.4023529998375946e+02  1.7990505933403725e+01  4.7804692892034929e+01  1.4222826851034405e+01  2.1071489055241202e+01  1.2923899805799465e+01  1.1685029610792141e+01  1.6144518258444336e+01  8.3901922884832601e+01  1.1798853503532006e+02  4.1080284169489145e+00  1.7366992819628464e+01  5.0416980700290006e+00  1.5719399556590931e+01  2.1123249582310258e+01  7.4640407772541399e+00  1.2779660511725142e+02  8.6898480970954239e+01  1.1740485889308681e+01  1.8272732290358288e+01  4.1428996068123771e+00  2.9192060237947064e+01  5.5081212089103655e+00  2.9545553877897284e+00  1.9278483066390777e+01  4.1894091247382050e+00  4.5693375740999933e+00  6.4214888564935420e+00  2.0187659593690764e+01  2.3405325162119183e+01  2.3992256252215295e+01  9.1367928110679024e+00  3.7707346261136323e+01  2.3417664715957919e+01  5.6670301186148162e+00  1.5565411951792434e+01  1.6601541465761350e+01  6.6092468111692790e+00  5.4864626389317852e+00  1.3244877436637331e+01  2.7896468350081796e+02  1.7832248504914052e+01  1.0697175905485523e+01  9.6456501364829279e+00  7.4984990217871740e+01  8.3972445957429454e+00  1.2634694574874027e+01  5.0898347653849143e+00  3.8085379940328728e+01  2.9419981148746871e+01  1.1666363546410754e+01  2.0377247621952095e+00  1.4171896259396027e+01  2.3268679625477954e+01  7.8108388423785740e+01  4.5695981401462333e+01  6.3795877005396653e+00  9.6287474006468941e+01  1.4549634011308555e+02  2.8679609831246893e+01  1.9405525237607510e+01  2.2521066183745990e+01  1.8378693364295344e+01  1.3705093529101443e+01  7.6714260173188393e+01  2.0237185796919483e+00  4.2731463696649996e+01  1.4381935977247867e+01  5.9866189517795647e+01  1.3156950127346997e+02  9.7158061443079646e+01  1.2386689285601649e+02  1.0429347245448665e+02  5.5891801633613852e+01  1.2197104120153517e+02  1.2471009478366463e+01  4.2449911549888251e+00  8.3886295924220171e+00  1.1710544125317705e+02  6.5591129520694302e+00  1.0809626733178986e+01  2.9575054593039312e+00  2.9185460646081992e+01  1.2342188824936773e+01  2.1665783481057844e+02  3.7157779847427315e+00  4.9119878158546202e+00  9.7474563949025956e+00  9.1587879024083225e+00  3.1746535888807458e+01  1.8095488627151102e+01  3.8250150831584833e+00  1.2940988913101958e+01  7.5409243671380928e+00  2.4878062599068627e+01  3.9756133961092409e+01  5.2136630406264768e+00  4.2237930467663745e+01  3.4719528299666131e+01  1.1799522598682506e+02  6.1240944617262080e+01  8.1769632610600702e+00  4.4524517106463692e+00  6.7687755294153158e+00  1.2450995040233492e+01  1.6557620230383812e+01  1.1847784872124569e+01  7.6785090834108360e+01  2.6756840427189545e+01  3.6956215476106991e+01  6.1105836755943741e+01  1.0007081613651295e+02  3.8637124303257346e+00  9.4852524788947079e+00  1.5730595583256981e+01  1.5084074891456128e+01  5.8899757084138740e+00  8.4765173425255522e+00  1.5290522443144885e+01  2.0120715637586542e+01  1.2775959827807633e+01  4.2761554294808654e+01  3.5694876793803045e+00  2.0474533499485651e+02  1.1224450404524882e+01  1.7346338113268736e+01  4.4503411686866329e+01  1.6502572765756316e+01  1.0075163473926669e+02  1.3201776436035161e+01  1.0489260128789032e+02  3.1878223266258178e+01  4.1870560678488475e+00  1.1982952925859428e+02  2.5245337378531306e+02  3.6428843998464451e+01  1.1775133386681659e+01  8.9065918570580624e+00  8.2597161365789145e+00  1.6377752738418270e+01  1.3126127892071002e+01  1.1452800648013076e+02  7.8820083601629676e+01  1.8222702849193350e+01  5.4327201851458788e+00  4.0449845730144061e+00  6.9360012618007003e+00  3.9705752468960700e+00  9.4792917726705468e+01  1.1145537352775479e+01  1.0562187054227550e+01  1.1402268303991434e+01  1.0481953303920211e+01  1.3053632042506933e+02  6.0985690930773053e+01  1.4558044531231046e+01  1.0145453572818392e+01  5.2614397017213905e+00  1.5147236344235276e+01  1.3451341640464747e+01  1.4492876634511363e+01  1.1444570033099801e+01  1.5928240510772579e+02  1.1692751388615401e+01  2.0537070578672768e+01  6.8532293975280343e+00  1.1039348578771303e+02  1.2108001558602480e+01  8.9938388163712908e+00  3.5232845227274754e+00  3.9744170445051390e+00  4.1583312384142790e+00  1.0609466621730415e+02  1.3391815394717517e+01  2.6079122489654146e+01  1.8267201303013465e+02  4.8655197731270704e+01  2.2196453552666107e+01  5.7681684986597936e+00  4.0231063614901899e+01  1.1056074076929722e+01  4.3713432996348534e+00  5.1125005328021533e+00  1.9126228122990216e+01  1.2308666988979446e+01  1.3680350416929748e+01  9.5847664600131743e+00  2.6844529542227441e-01  2.9705806598113615e+01  7.0653723477598385e+02  2.9372098160343249e+01  2.2356326450420912e+01  1.3150337243805504e+01  1.0363909096461253e+01  5.8211753906924052e+01  1.8781384585126919e+01  1.1038255439210211e+01  4.0496255976928083e+01  1.5911240994608256e+01  1.2677694054372980e+01  4.0054303276137810e+00  1.2169288328961938e+01  1.0408309630572672e+01  9.5894521703682578e+00  7.3723824385131152e+01  7.0682895136174167e+01  2.1827998357542421e+02  1.0539975942713910e+02  4.7174208305114433e+00  2.8890464824269543e+01  4.2312122331948272e+00  1.1099567675744832e+02  8.9433456851410611e+01  5.5586900277002542e+01  1.4801292724106698e+01  4.4304740686187489e+02  1.1558995217829374e+01  7.6833045198678178e+00  2.7237286530633266e+01  3.8962069413425633e+00  1.3092982570237972e+01  2.2725395008065227e+01  7.5314249419232402e+00  4.5967085399802636e+00  2.2295294470844031e+01  5.5417194044503262e+00  2.7292155490850220e+01  3.1792358852459062e+00  1.5777235257477274e+01  3.7655713394542203e+00  5.5893920754822366e+00  2.7121335880185192e+01  2.6123733435526010e+01  4.3130840365806478e+00  9.3570446892412662e+01  5.3863099357048467e+00  7.3322161841386260e+00  1.0942685470610099e+01  2.9147213487767272e+00  2.8257771958779621e+01  1.1540252693802042e+01  4.2145764704066586e+01  9.6925782893153951e+01  2.8866939806705631e+01  7.3896354600113572e+00  5.3661854904843960e+00  3.1924461884317918e+01  4.3910002296218122e+00  1.5732017707790057e+01  5.9637606564811287e+00  3.6635079829525303e+01  5.0041166465878186e+00  7.4111687521587957e+00  7.1038705956328112e+00  4.4479175384309970e+00  8.2903174423293166e+01  1.9943463871942924e+01  1.5220468330668194e+01  1.2002838538372856e+01  1.2599493926608716e+01  8.8026952854597997e+00  4.9373931978203114e+00  1.0597749616998161e+01  8.7405745292295354e+00  3.3778107637786889e+01  1.1677025887572775e+01  3.2665963382069577e+01  5.2554694369613939e+00  4.2091293817892685e+00  2.2582076033714483e+01  3.5644326052679702e+01  1.3925731142943301e+01  1.0882914838357205e+01  6.1936776062366036e+01  8.8271339526245697e+01  4.2661898438836241e+00  2.3677178237892136e+01  2.3590483016180940e+01  2.2305569116821410e+01  2.1972468887301808e+01  1.8532023844700099e+01  1.4759698417785414e+01  1.7532181704249279e+01  9.5408733869898814e+00  4.2735457998985495e+01  1.7642973190759694e+01  1.0125199399771968e+02  2.2402841497145708e+01  1.2166588225903087e+01  3.4081396980773238e+00  8.8962864225926594e+00  8.6644464669789549e+00  6.7834597839759123e+00  1.8427109906316307e+01  2.0055171522392520e+01  1.2992923875366246e+01  3.8766928509803065e+00  1.7502123124828884e+01  1.1458537335644992e+02  7.1836533959052851e+00  5.7038290762760546e+00  2.1618238108958618e+01  2.6233060483827433e+02  2.9229711195866639e+02  1.5415355005759613e+01  4.0173443968254556e+00  7.9786735233058907e+00  8.0594468660659562e+00  7.4073319402371283e+01  1.2813112114838768e+01  1.2138986254543443e+01  2.4270658410368409e+01  2.6173625398331456e+01  1.1088021903842903e+02  1.0873471465995763e+01  7.2693394832910494e+00  3.8877008127492097e+01  9.9456637597600785e+00  1.0047524341837487e+01  3.3627095299317631e+01  5.0872971777561204e+01  8.6503801252009339e+01  1.7773944845694643e+01  1.9615805550075965e+01  8.2080398446799965e+00  4.9114128488561839e+00  5.6970059481155726e+00  4.3054878421009706e+00  4.5704548326322119e+00  4.1851475938927010e+00  2.6741630636477051e+01  3.7027041653265606e+01  1.6168205084294637e+01  4.2916996506214380e+00  1.0128023637366087e+02  8.4568281926444612e+01  9.3889400863350012e+00  1.3616551399190145e+01  1.2328987719214057e+01  1.2967228609768993e+01  1.2203819021750673e+01  2.2034703393344110e+01  1.2179115105777138e+01  2.8958917592635247e+00  2.2678216823249824e+02  1.6505709317741128e+02  1.2713712263491621e+01  8.3732832734874343e+00  1.4655756745007970e+01  2.3581843473487027e+01  1.4725370900460902e+01  5.7658379505542598e+01  4.7709618076545439e+01  1.5820627676553423e+01  4.8045192284512721e+00  3.5135630798209645e+00  1.8045775501956520e+01  1.7607997016887964e+01  6.7835269201329567e+00  1.5607592040098751e+01  2.0114829449935556e+02  3.3452885922896030e+01  1.5504084645215457e+00  2.2507725579471662e+00  1.7103290228985676e+02  9.4212395018407534e+01  9.1876133458805942e+00  1.7156048971934563e+01  6.2044396545217779e+00  8.1705728049961230e+00  6.4603590430753044e+01  9.9995223479194792e+01  8.8920608330895220e+01  1.2000717338396147e+02  3.9851289726731167e+01  3.2705663576007609e+01  6.4907421436320121e+01  3.4112897218318999e+01  4.0245398663707084e+02  2.2635482455150907e+01  9.6091493724754173e-01  3.5530807931826530e+01  1.2341889022727719e+02  1.4989591294497625e+01  2.2338617886444577e+01  7.1212198936441429e-01  5.9972086572355954e+00  2.6244818839806069e+01  3.1876336373210323e+00  2.3502981993767069e+01  1.3498544069486748e+01  2.3680035133130936e+01  1.4722213096644941e+01  1.4009272659735837e+01  1.2911040486151176e+01  2.4195491972492871e+01  6.0174479972729982e+00  9.7086942621817357e+01  1.9240897012586422e+02  1.6550292361224956e+02  8.3776555447298023e+01  1.3099955947672544e+02  3.3352754484425432e+01  1.1924550977384847e+02  9.1410130929041856e+01  1.5467950422550141e+01  1.1421055420804701e+02  7.5714918190165619e+01  1.2690762711696820e+02  1.1853103336691206e+02  1.0506885147435693e+02  6.7220735083357553e+01  2.8947821910436428e+01  4.6555639276085969e+00  1.6988522693994952e+01  3.3326261294743546e+01  4.3671797185784214e+01  1.1586611138130240e+02  1.3970819874642302e+02  1.1508898852513636e+02  4.3693897695912511e+00  2.2413089237717543e+01  2.5124951574919674e+01  2.4669925145491639e+01  1.1128427746882315e+01  2.1300354160882407e+01  3.4159312495943624e+01  2.9071319449688268e+01  2.5407873862830392e+01  1.1958063802255896e+01  2.4380523721102556e+01  6.5122836297761097e+01  4.5309893255695117e+00  3.9031623957967412e+00  1.7051281383354826e+01  1.0915623219251606e+02  7.1039872909597301e+00  1.3540439011610260e+01  1.3568674467748433e+01  4.1862579920684153e+00  1.4111661988709696e+00  7.9217304861245286e-01  2.3701935586178472e+01  2.0955042601472083e+01  1.9351396063635622e+01  1.9474948403444195e+01  2.0882085923001956e+01  2.5124866838627479e+01  1.7651492978623239e+01  1.0254002172327944e+01  1.0339601420344557e+01  1.7491448484619291e+01  6.6802119258538690e+00  9.0268388839149438e+01  8.2844819289350468e+01  1.6976176110679646e+01  1.1568083514237857e+02  6.0760000980960829e+00  4.6241196706078194e+00  5.2611989679641615e+00  5.2771654949183890e+01  1.0756106694237707e+02  9.0459846720633905e+01  1.5472792208384288e+01  1.6760262809621480e+01  4.5524391009382349e+01  8.9711375399371562e+01  2.1970759400785507e+01  2.4544468940545038e+01  </DataArray> 
</PointData> 
</Piece>
</UnstructuredGrid>
</VTKFile>