<?xml version="1.0"?>
<VTKFile type="UnstructuredGrid"  version="0.1"  >
<UnstructuredGrid>
<Piece  NumberOfPoints="758" NumberOfCells="1386">
<Points>
<DataArray  type="Float64"  NumberOfComponents="3"  format="ascii">-1.570796326794897 3.048 0  -1.570796326794897 0 0  1.570796326794897 0 0  1.570796326794897 3.048 0  0 0 0  0 3.048 0  -1.570796326794897 1.524 0  1.570796326794897 1.524 0  -0.04609926118424437 1.524 0  0.7853981633974483 0 0  0.7623485328053261 2.262242601661362 0  -0.7853981633974483 0 0  -0.7853981633974483 3.048 0  0.392699081698724 0.7745759241961347 0  -1.570796326794897 0.762 0  -0.8084477939895706 2.0955 0  -0.68277245543452 0.8915343570675713 0  0.7853981633974483 3.048 0  0.778743707341909 1.468410948960538 0  2.780093748954961e-16 2.285302774973185 0  -1.570796326794897 2.286 0  1.570796326794897 0.762 0  1.570796326794897 2.286 0  -0.9375370967763674 1.47348297960658 0  0.9831575747762593 0.9003629142671278 0  -0.3926990816987241 0.4064697549061488 0  1.177419588818055 1.905 0  0.3692901340097942 1.880893989147954 0  -0.4920225169641509 2.564371687128368 0  0.3926990816987241 3.048 0  1.178097245096172 0 0  1.155705348811136 2.643920532523289 0  -1.178097245096172 3.048 0  -1.178097245096172 0 0  -0.1391296372266528 0.8873724190154949 0  -1.10527745318919 2.528282743051346 0  -0.9817477042468103 0.4742759268549471 0  -0.3416666987802651 1.923944646262223 0  -1.570796326794897 1.905 0  -1.156555306160469 1.030861936336814 0  0.7648449098493205 0.4764142032227 0  0.3926990816987241 0 0  -0.4820376416180818 1.326151321396512 0  0.06374421723344185 0.4545169930886408 0  0.1972735722393064 1.163324878565267 0  0.3900417218314142 2.566922767651637 0  1.570796326794897 0.381 0  1.188877612935585 1.295195418509834 0  1.179914028402171 0.5308585702661928 0  0.7660075594126428 1.865233039449035 0  0.6330293131838399 1.095171663968746 0  -1.201232463242587 2.144287146570887 0  -0.3926990816987241 0 0  -0.3926990816987241 3.048 0  1.178097245096172 3.048 0  0.7684409382397209 2.649499271873753 0  -1.236954997304436 1.7145 0  -0.1088573452899617 2.666651387486592 0  -1.570796326794897 1.143 0  -1.570796326794897 0.381 0  1.570796326794897 1.143 0  1.570796326794897 1.905 0  1.570796326794897 2.667 0  -1.570796326794897 2.667 0  -0.6730839067294777 1.743003792473746 0  1.199831389396789 2.275437921225198 0  0.3936837537618041 1.495643752599615 0  0.01539369169800942 1.928544709491661 0  0.4156551272669651 0.4219033286010089 0  0.3401546043708642 2.225103550856524 0  -0.3379897306391274 2.262671266279809 0  -1.23624174049596 0.7000907110925838 0  -1.265224057170889 1.360131453617764 0  -0.1224339018241312 1.210043725539656 0  1.289286200625578 0.9918698881707442 0  -0.7751142346211329 1.197848666814478 0  1.003546186550495 0.2660297686099683 0  0.1963495408493621 2.808538634159524 0  -0.8079023568959116 2.703551618159924 0  -0.3480226984353056 1.610059855391589 0  1.075147893506229 1.598068412087719 0  -0.8290627893979112 2.399544545867518 0  0.6965048925255637 0.7972100472372819 0  -1.257765094876752 0.3107645483825858 0  -0.6724835324263325 0.5684215760013651 0  -0.3995059642389676 0.7173610149075536 0  0.9136951972244611 1.187564504803626 0  -0.964259350608907 0.8095514380783081 0  -0.7565990314517038 0.2897049735129544 0  -0.9603859887840651 1.834914433810327 0  -0.1457055965762301 0.2521630699436873 0  0.1963495408493621 0.2041911848053476 0  0.6241974196550791 0.231695999252114 0  -0.4098815011312292 1.029160072548571 0  0.9592800715482012 2.452820690856482 0  0.9648684169153161 2.840751931000357 0  0.5890486225480862 3.048 0  0.164631037784102 1.698913854044779 0  0.5664480837073581 2.070920238540226 0  1.374107957806476 1.7145 0  0.9861079629544779 2.102471438422718 0  -1.374446785945534 3.048 0  -1.288827800789186 2.762781313597598 0  1.353232957571468 2.835634774483438 0  1.302158670506274 0.2650078124691045 0  0.1394669809465775 0.8907702620243092 0  -0.5631487221059602 2.830992231257464 0  1.372837635547072 2.483038902756259 0  -0.1493395228831287 0.618617259260858 0  -1.32327048447753 2.378769394323546 0  0.56080204725298 1.699622905297025 0  1.570796326794897 2.0955 0  0.5403456747786348 2.786446773498672 0  -0.9817477042468103 0 0  -0.5847039960246873 2.326882432521036 0  0.1225428891326576 2.526494255738436 0  -0.9817477042468103 3.048 0  -0.5522901559753841 2.071668786267058 0  -1.370864794258017 0.9075071715671403 0  -1.043891045637083 1.250611220450313 0  -0.1652643923634778 2.09141301924679 0  -1.044446740946883 2.764982067459552 0  -0.1610370079820225 1.763280243096074 0  -0.3136912237752232 2.810498886211121 0  0.5400974078002052 2.370472734822523 0  -0.7009161718414544 1.427243880175582 0  0.902907438200502 0.6735032943420574 0  -0.9879196222361604 0.2371379634274736 0  1.319268546233604 0.7412771512308228 0  0.5578373583610097 0.608241627784878 0  0.5756483102040615 1.332636919938113 0  -0.5281701577409 0.2032348774530744 0  -0.266729509930448 2.489223923247521 0  -1.570796326794897 0.5715 0  -0.2430656531629531 1.405631921096758 0  0.253622337931223 0.5884397663452474 0  1.284044721043478 1.50372037617638 0  1.570796326794897 1.3335 0  -0.9904333867980613 2.235882060371517 0  0.9871146764618406 1.395690276854986 0  -1.374446785945534 0 0  0.3981951765262902 1.020833864419675 0  0.1670583512016766 1.405384478716078 0  -1.330327693484763 1.938638984813805 0  0.2106653067452682 2.040805097078886 0  1.570796326794897 0.5715 0  1.334822181490566 2.081373939821734 0  -0.9303227889097604 1.033236710715967 0  -1.34639228476592 1.150776798768373 0  -1.570796326794897 0.1905 0  1.106697207481837 1.099709897393925 0  0.4137866939027022 0.2104288000383385 0  -1.570796326794897 2.0955 0  0.9761377489246634 0.4754251272674608 0  1.377108465632662 0.4605024587280874 0  1.108114944719677 0.7297638044096917 0  0.3695908229138113 1.285681859811955 0  0.9799112840676307 1.800306505551499 0  -0.001696842075803034 1.042028929293442 0  1.366537356420357 1.185723700290463 0  -1.385029840108318 0.47625 0  0.05842649915411911 0.6874537157920781 0  -1.183268988745763 0.4997334438341218 0  -0.6073502281622543 1.081347079085406 0  -1.026941765261019 2.031536576622642 0  -1.570796326794897 2.8575 0  0.8159726599830506 1.011928543199529 0  0.7652782693277244 2.849245002237192 0  -0.5252326280373281 1.520125074885265 0  0.7648326174724897 2.063743853392348 0  0.757099741434616 1.666331708950521 0  -0.1963495408493621 3.048 0  -0.005410422648647092 2.843333256403111 0  -1.395368347654653 2.19075 0  1.374446785945534 0 0  0.9817477042468103 3.048 0  0.1963495408493621 0 0  -0.1963495408493621 0 0  0.5890486225480862 0 0  0.1963495408493621 3.048 0  0.9817477042468103 0 0  1.374446785945534 3.048 0  -0.5890486225480862 3.048 0  -0.5890486225480862 0 0  -0.06865319188571758 2.471928549109083 0  1.159049337209348 2.838090892449816 0  0.5817075150535711 2.596909954318943 0  0.7656515661107315 2.455866896253367 0  0.9620790410056582 2.647119292933887 0  0.3676829480103987 1.68739481709134 0  -0.8886101495223063 2.878912500124773 0  -0.3317793704126089 0.1873756770788371 0  -1.383208664444332 2.577695923010364 0  -1.043597917648523 1.648216005744782 0  -1.362178343413552 1.546177620526679 0  -1.570796326794897 1.7145 0  -0.8462722504471433 1.648434957877788 0  -0.588076822054871 0.3899352838051667 0  1.570796326794897 2.8575 0  -1.570796326794897 0.9525 0  1.570796326794897 0.1905 0  1.570796326794897 1.7145 0  1.570796326794897 0.9525 0  -1.570796326794897 1.3335 0  1.570796326794897 2.4765 0  -1.570796326794897 2.4765 0  0.8103777117362174 0.287468585434799 0  -1.145334531235929 1.881885620422454 0  -0.8620560674467429 0.6361265362229395 0  -0.321688879263093 1.207848147265888 0  -0.7798551871678058 1.904240998338365 0  -0.4724954359209014 1.769587110195458 0  -0.667402576232105 2.495985359319255 0  0.5365063314111709 0.8945566719544227 0  0.1855702280441107 2.342745654422604 0  0.55510120733165 1.88540118775351 0  1.188295809121239 2.460939894898248 0  1.38587897409014 2.260870763688798 0  1.383978812419919 1.901097375082534 0  -0.2265735189171196 1.049795314962436 0  0.7387890113368257 1.246392780742437 0  0.5763234466275948 1.516457524623135 0  -0.203279258075353 0.4348372558382012 0  -1.179202350299698 1.523245956950107 0  -1.151844216720993 2.318990544544152 0  -1.410806081599612 0.6547540757597369 0  0.04190096621848406 2.108399609871347 0  0.5925649981629265 0.4343292987553075 0  0.2371113691258682 0.4102816185532077 0  1.334103818253725 2.657728219912091 0  0.9405077369493808 2.275181409651143 0  -0.633962040105568 2.669303984283053 0  -0.6045614816381242 1.904349918307267 0  1.159697673803787 2.079238591118184 0  -0.004643801590645341 1.347662554528907 0  0.3691400131247499 2.395423267764724 0  0.3855005143298051 2.055603978165229 0  0.01839821075864462 0.1788084577298442 0  -0.9568120219060965 2.61629404172056 0  0.1783135820912846 1.871116340262054 0  0.3649950158263953 2.745288921627024 0  -0.3142054567155264 0.5671999812317062 0  -0.4933549623779417 0.564740705097546 0  0.06092775470575962 2.685867440722903 0  -0.1801827362748675 2.337517890002858 0  -1.063355415037434 0.6386189748554 0  -1.205242865599393 0.8676070232612285 0  -0.4176020549597784 2.412196127179313 0  -0.3347051678178828 2.093252344225509 0  -1.427772711006951 0.2857500000000001 0  0.8835729338221293 0.1362887052191026 0  -0.6831011505337878 0.1389086130988801 0  -1.403875662049666 1.77648180985222 0  1.394165436236593 1.362588987767805 0  -0.5007942298153729 0.8700626692351643 0  -0.6093220848169366 0.7321530406295067 0  0.007534593095922887 1.760126887057542 0  -1.276272015520854 0.140425968067263 0  -0.7270478511000733 2.847016806985676 0  1.436331331726002 0.85725 0  -0.1770320080670663 1.927167796173981 0  0.7200726153501196 0.6345534912379586 0  -1.099983122078282 0.3577316115390257 0  0.2324759135153202 2.648405702327079 0  0.9054371869972004 1.582409569434113 0  0.5000672234640285 1.188708149930449 0  -0.340793734207542
[...]
<PointData  Scalars="Elastic Energy"> 
<DataArray  type="Float64"  Name="Elastic Energy"  format="ascii">7.4938884464117325e+02  2.6180322003646740e+01  2.6264291385184205e+01  7.2272229937043198e+02  8.4736226975143424e+01  2.6342029828763625e+03  2.5613860657562928e+01  2.6059664238194426e+01  2.8377557835188020e+02  5.2276535998320872e+00  7.0509339902824991e+01  5.2240453060609955e+00  1.3917716333836971e+01  3.8650331990833024e+01  2.6959126860350850e+01  1.2808467313301668e+02  2.7274583165313768e+01  1.2388617802350005e+01  1.4268623945109309e+02  3.1405774591810513e+02  7.3491206624318073e+00  2.7276734918245360e+01  5.4192463293119033e+00  6.5622132158053546e+01  2.4895270126043823e+00  2.9068894942691884e+01  6.0663470753383244e+01  4.3851614581303210e+01  2.8332540238586084e+01  7.6485775668274954e+01  2.0543257952904586e+01  2.0386186121485466e+02  1.1285986989705522e+02  2.0450390889334248e+01  3.9135399965175459e+01  2.0410042706898750e+02  5.4718938311412835e+00  6.6674245003278756e+01  1.0354467106413315e+01  6.6082149750419683e+00  7.1907835256850596e+00  2.3864771269091595e+01  2.0921013861918283e+02  2.4903929900735211e+01  1.8770978622993394e+02  6.9518181950308858e+01  2.6631234666368542e+01  5.7333342431657046e+00  1.4017763304996988e+01  1.5432629013365280e+02  7.8047339127119074e+01  9.3034073528744230e+01  2.2849127815157360e+01  7.0751934860947244e+01  1.0802773891944591e+02  9.8402983888901705e+00  1.7621592731937305e+01  3.3184389446582469e+02  2.7145488457482873e+01  2.6523339910947819e+01  2.6782152064961853e+01  1.0913308417295452e+01  1.2880729214189148e+02  1.3334326105695826e+02  1.4214787701957741e+02  1.3323929477808292e+02  5.9708655932478258e+01  2.9693357557078480e+02  2.8683947583881594e+01  9.3564406883049273e+01  9.9898141714190430e+01  1.5258424195666425e+01  9.4015369174845826e+00  1.6626356484991615e+02  1.5723660052330343e+01  5.8219459087051234e+01  9.4992691232807545e+00  2.0123092043320023e+02  1.2886351251494816e+01  3.4810592094108266e+01  3.8152000464441556e+01  6.8748778128082790e+01  1.9607196669478856e+01  2.0593371538032503e+01  1.4508599001044168e+01  3.3086128680629329e+01  1.8199028135720781e+01  2.4534930842902689e+00  6.3056562682670396e+00  1.4214150150455947e+02  4.1000623569227685e+01  4.2468062260902364e+01  1.1660986759858769e+01  1.0482562717881751e+02  1.2717476188136015e+02  3.5647200087095861e+01  2.7383997218852400e+01  2.0858578530696130e+02  1.2468538027468508e+01  1.3246348219206130e+01  1.7999993369770291e+02  3.1284315543817661e+02  2.3806520376460736e+02  2.7453156092607981e+02  2.2402448277066888e+01  4.6172510890381091e+01  2.1097463792776324e+01  9.5339173411192149e+01  1.8360844793750839e+01  9.1525828486448788e+01  8.5383128266493671e+01  4.3632400076382591e+00  2.1046350399362147e+01  1.3310065413624732e+01  6.0064703791650116e+00  2.8661316411377823e+02  3.1795702533409266e+01  1.4095368655344268e+01  2.1369666318151197e+01  6.1654421889206841e+00  2.3402073863887091e+02  9.4816007860583895e+01  2.1830095147859578e+02  1.0715695405127694e+02  1.1629611976933305e+01  1.6871373392074960e+02  3.5256876793938172e+00  9.1466556919729118e+00  1.9647311342414845e+01  2.4489295535166310e+01  1.9138593518522961e+02  1.7550817316926782e+01  1.5791952604190698e+02  2.6418651921882674e+01  8.5725902635388707e+01  2.5207230733177699e+01  1.0333827665542634e+01  2.7162087108253658e+01  1.7103899378672256e+02  3.1304613787837184e+01  2.4312627806472463e+01  1.0680684740535909e+02  1.6956681298875867e+02  1.6820982856780518e+01  1.9741751937914395e+02  2.6836968397705892e+01  2.7233470818977473e+01  5.9825070837798631e+00  1.8331709427280714e+01  2.5387419711324558e+01  3.5020863753244873e+00  2.7418446452089800e+01  4.2768784597885281e+00  5.3597752113588442e+00  2.3650725557664799e+01  7.2391578522009050e+00  1.7832499138302236e+02  1.3551255221374774e+02  1.7521771531087509e+02  1.9484665796292326e+01  2.3815666939121581e+01  1.2539215253264137e+01  1.4643339181216994e+01  7.9695848557013491e+01  1.5054529636012904e+02  4.4547448252732016e+02  1.8371158067216673e+01  3.0147221887764073e+00  1.3166831159151383e+02  1.2255634157021454e+02  1.9721134668686744e+02  3.0783853433075478e+02  4.8473635469211723e+02  2.2164319457671795e+01  2.4477280596220798e+01  3.2709076855933013e+01  6.2182328534555950e+01  6.2994995285570170e+01  5.3244610258336467e+00  2.4171989011300715e+02  1.3516124723763781e+01  3.0898619417055454e+02  2.7317217258878358e+01  4.9737982299148582e+00  3.1522787507391899e+02  1.4661542556345171e+02  8.7109229703088200e+00  3.0351050402908577e+01  7.7289000423094350e+01  3.0121233385159904e+01  1.0360392453274157e+01  3.3556922866967909e+01  1.1882985748820971e+02  6.1666717744991352e+01  1.5363750618039868e+01  1.9359843022141234e+01  1.5999036734524486e+02  1.7591193239160191e+01  3.7078734502966302e+02  2.7027470646471709e+01  2.5311433963088660e+01  1.9282655035734486e+01  2.7595683023963428e+01  2.7495305858266200e+01  3.8259279777178307e+01  3.4651909421786698e+01  5.2254949947993365e+00  6.5735974488126388e+01  4.2699250676783569e+00  1.8422122949962980e+02  1.5754785538544445e+02  2.0008748552778261e+01  6.3506815375051859e+00  4.7012294221243401e+01  2.3304528673736547e+02  3.5837329592149068e+01  1.7754471911374816e+02  3.6203332891297443e+01  1.1431048811283771e+01  1.5471359136227363e+02  8.5285074757375568e+01  1.6592096252577429e+02  2.8221079265095998e+01  9.7916568231767780e+00  1.7681070511119898e+02  2.4215112659579063e+01  3.1006256728134366e+02  1.8313338159990042e+01  3.0501324023081143e+01  1.9997389022190916e+02  1.6089487890331492e+02  3.3372068753064319e+00  6.1358471842557925e+01  1.0882495989567731e+02  2.9414440597826552e+02  8.2572214779806060e+01  4.9988784543591628e+01  4.7533787536629802e+01  9.5584243587314788e+01  2.0542137897545609e+02  7.4764046440529384e+01  2.7941984838060062e+01  2.7107680351729876e+01  3.8576685224446697e+02  2.3707795574431489e+02  6.2432012529215912e+00  1.1251637366476814e+01  5.5320502600519227e+01  9.1840208971607709e+01  2.5234418952030307e+01  6.4881556867250643e+00  5.9561063089502309e+00  1.2801414620676717e+01  2.0300468582809437e+01  4.6516673618519569e+01  2.4605517429548502e+01  3.0394167817546958e+02  2.0827776435484260e+01  2.2351337796691935e+00  2.4682169108480561e+01  2.1131178178966022e+02  1.2585679810722691e+01  1.2615621975003908e+01  1.9497357488902790e+02  1.2327174740191226e+02  1.7943986814245750e+02  9.7866412616779741e+01  1.8222357596288015e+02  4.9196060100561141e+01  5.2634850149189445e+00  2.3298849690330695e+01  3.9040086612446551e+01  1.4707755050356536e+02  2.9233935522814175e+01  7.7480146599210983e+01  6.1871000181317024e+00  6.6972490203554758e+00  1.4115476070641334e+01  1.2628843165594246e+01  1.9218865694615852e+02  9.1040216614292007e+00  1.6522908776049943e+02  1.5094909125053911e+02  1.5340863504171898e+02  1.1819520991255157e+01  5.2369687281640857e+01  2.7501633531328810e+01  5.3843971457809179e+00  6.8158785752792454e+01  1.7574670556807175e+02  2.4200295792843299e+01  5.3883851173654215e+01  2.2366973676018031e+01  1.0443121655212673e+02  2.0618853429047229e+02  1.6666682912313013e+02  2.9842831231277874e+01  1.1003815004073050e+02  2.9783444173825295e+01  8.1570341861533340e+00  7.0106581587167923e+01  7.6371427041773359e+00  1.6112272396028455e+01  2.4508291230167618e+01  3.3989431891468968e+01  2.3467800075105154e+02  1.6634697310126953e+01  3.3065367907561189e+01  2.4677125525893477e+01  8.6515296779970292e+00  1.8293431274092291e+02  3.9431256978023367e+02  2.0175578296223296e+02  1.9455608810052561e+02  4.9513770544184847e+00  5.2910666856871842e+00  3.4105791571054298e+00  2.0755411955806231e+01  2.3717809681949252e+01  2.5459667072120560e+01  3.9961852116983252e+01  3.0556355694855284e+01  2.3604386097874404e+01  6.3738331702969333e+01  5.7546076851546566e+01  2.4679776112532522e+01  1.2411841190528847e+01  1.3448429512254660e+02  2.0953300946695492e+01  4.7490131838520000e+02  2.5965172437944847e+02  3.2008714225992186e+01  7.9445744152993552e+00  1.8788988292260587e+01  6.2658486877338264e+00  1.4475546451986302e+01  4.9816614332892319e+00  3.4900743006797455e+01  3.6499828580643914e+01  2.2367347198861030e+01  5.1388896726803734e+00  1.4227482382369394e+02  1.1715503361932473e+01  8.1821016065686649e+01  5.0080836223538803e+01  3.0051141610960620e+01  1.7842277724781584e+02  4.3512973335844642e+01  3.4081413873003662e+01  4.6850961928678736e+01  1.7018556503344379e+02  1.9210677290846828e+01  3.4643262553014260e+01  7.8849497884746555e+01  2.1865681974348993e+02  1.7834886857317397e+02  1.7579874173631410e+02  1.3729954937639670e+02  5.2791256000084786e+01  7.7616338113509986e+00  2.2442130821299124e+01  1.2525478931839928e+02  1.6572225419905251e+02  5.1684570781119902e+01  1.9626786060327930e+02  1.6244248372158815e+01  1.1142624232539125e+01  3.7913041574980404e+01  1.7373243538372112e+01  1.1129397328106069e+01  4.2933184441096518e+02  1.0142187542155416e+02  1.2012227629904334e+01  3.1226393777178231e+02  1.0328275966995096e+02  9.9468721746609987e+01  7.0847841226652992e+00  6.9230202788201396e+00  2.0218682252362473e+01  1.9606983300455497e+01  8.6580002998739999e+01  2.0342319011176517e+01  1.3640198809848631e+01  3.2576727492664823e+01  1.8357199092608755e+02  6.1368630801308512e+01  4.8815096719767972e+00  2.5775324408734377e+02  3.5293456658240451e+01  8.5553326803249462e+01  1.5002946684971806e+02  8.9258379627899728e+01  2.4772625667258708e+01  1.6906517861786210e+02  1.8543674226609022e+02  1.4529902019065331e+01  1.0738621854466479e+02  6.3955950677334478e+01  1.2089347170205787e+02  1.5155896366575133e+01  1.2413243368964347e+01  9.1271524383147913e+00  3.4593583956588233e+01  1.6014958228572052e+01  1.7332715560850716e+01  3.2135400042328023e+01  1.5676331391520478e+02  1.8591086956232684e+02  2.4748337051889347e+01  1.9971450076475104e+01  1.2470327404901800e+01  5.4622273095262528e+01  3.0255824128331074e+02  1.2158927403721426e+01  1.8763389457269259e+01  4.9109581552340103e+01  2.5115909307193110e+01  9.9324579201136714e+01  1.0999072893573991e+02  8.4408358271258720e+01  2.2005563544821371e+02  4.2157528303421241e+00  1.7925821140187506e+02  3.5367201165937706e+02  4.2381691671007033e+01  1.5863853100290777e+02  3.8288252780692100e+00  8.2782197820956700e+00  1.8563197382666747e+01  1.4280473715755964e+01  1.6736119606908687e+01  5.4729533316802579e+00  3.2698759212509117e+01  2.1683731580419905e+00  2.2766500115438411e+01  4.7298134881008799e+01  2.6753097364938334e+01  1.9743125908736789e+02  9.7153195484487057e+01  1.3740310947924749e+02  1.8120865921087588e+02  1.7451243640306009e+02  3.9157633785241913e+01  1.6478916455173581e+02  1.5679023399705929e+02  1.4945087372205319e+02  1.2051903591646415e+01  2.2314729401632423e+01  2.4042806382766489e+01  5.2495784542794517e+01  1.5203207750110520e+01  2.9794558456533383e+02  2.7732443400796166e+02  2.4904142411622072e+01  1.7256196975851829e+01  2.8417652788481183e+02  1.8675002277853281e+02  1.1944458591409834e+02  5.2640285608032826e+00  8.6811507129399406e+00  3.0392259834837207e+00  1.1261450713496609e+01  5.5064290049323866e+01  2.1677988041050327e+02  2.6932100695940233e+02  1.2916795174973066e+02  7.7352534434234883e+01  1.5053518356452827e+01  1.2139935480062864e+02  7.3096029733233038e+01  8.2627046635969251e+01  4.4481181574332993e+01  1.6983734860054227e+02  1.2138350556184552e+02  2.7330363736161242e+01  1.2398061257149379e+01  6.2994612325306127e+02  1.6296041468934735e+01  1.3731865033434151e+03  2.4274207485296056e+01  2.8783312519857159e+01  1.7478598860669830e+01  1.0540527788014082e+01  1.8009742146242536e+02  2.9805422042413252e+01  1.5654188266310004e+02  1.5162737518266383e+02  1.8487832035705406e+01  2.0464558580659198e+02  9.5093078033461609e+00  1.0744077435292446e+02  1.4111505823204537e+01  1.0287557119974098e+01  1.4209591350331556e+02  1.3056669329565281e+02  3.1916848207088697e+02  7.3050517360312579e+00  7.5381705434891284e+00  5.5098427653405544e+01  9.1754583554013891e+01  2.6476156131217806e+02  1.2697678946009874e+02  1.4127267611419498e+02  2.1316065400273109e+02  7.8762621988714011e+02  1.2316646381400497e+01  1.7385003144063433e+02  5.8610385037452808e+01  8.5951652393332566e+01  1.6728333891320210e+02  2.5724925998061273e+01  1.0180040032882324e+01  2.2948063720733376e+01  1.0681403038992274e+01  1.3818695994364552e+01  4.2450334554469094e+01  6.2493616032438117e+00  2.7247348912993495e+01  3.4272513634916642e+01  7.6843904546865758e+01  1.3070897988185591e+01  1.8044618472319392e+01  3.5173378912504916e+00  2.2226448290253717e+01  1.3130421323728217e+02  2.1942842003159836e+01  1.3267416459988258e+01  5.3373377177592818e+02  3.5323849993720749e+01  1.4015086205570151e+01  3.7715011232592857e+01  1.2822711476081085e+02  1.6956996945316892e+01  4.5739949105034494e+00  2.9716939204894040e+00  7.9988500481143472e+00  6.9391004080204183e+01  1.6717320913076431e+01  3.5388898345192934e+00  2.2359821198203708e+01  9.9637779849870043e+00  5.2475624689167288e+00  5.4220299593167240e+00  4.9067049494663371e+00  5.9298820955114486e+00  2.5648050693538703e+01  2.2072411715646467e+01  1.0965784725657473e+01  2.0869621111706721e+02  7.7695356512818474e+00  3.6219345097250359e+00  9.2366690601698860e+00  7.9506327236179359e+00  4.0856426171535325e+01  3.4245379112314843e+01  3.5227644408695575e+01  2.5170513409045324e+01  1.0470285874777359e+01  2.3271648794290083e+01  2.7876666059270686e+01  2.2931947679377245e+01  1.3549326556043995e+01  5.4952210251552414e+00  1.7300000761715065e+01  2.1029027156289626e+01  2.6475477736432317e+01  2.5815331182915152e+01  2.5522802589019211e+01  2.3367894011310263e+01  1.9339748448183940e+01  1.8508542434628406e+01  2.4954594458449098e+01  8.2789335661363044e+00  2.8196358788663241e+02  2.2449678545976628e+01  9.5099814258329580e+00  2.7063128810138895e+01  1.8506420818015465e+02  1.0659368507310478e+02  1.8227521772038315e+02  1.4906160679498450e+02  1.3089335980273967e+02  1.9667023894254246e+01  5.1664239141238980e+01  1.2341574217261025e+01  6.1110130924642423e+00  1.0317306992764846e+02  6.6271258470841829e+01  1.8214513297984514e+01  2.8708969423041348e+00  2.3012286486499733e+01  3.7906590109611608e+02  4.2485337285589515e+02  1.9256027784436338e+01  7.2706328768114105e+01  6.1636222002161908e+01  4.2992673567151463e+01  1.2083089377273029e+02  2.3172881344030881e+01  1.5086034402284163e+01  2.4032265194591496e+01  2.5320973066005273e+01  2.8311291220830350e+02  2.7610576569982445e+01  8.7353797604825196e+00  9.5609756516386710e+01  6.2562463510759450e+01  8.4300758754697434e+00  1.5389743897814185e+02  6.8797780354889071e+01  1.8237279188291964e+01  2.7326666661751233e+01  1.6425081016106935e+02  9.7473637387949168e+00  2.8085017965646832e+00  3.8536762881426641e+00  3.9252632041065731e+00  1.7643128103527612e+01  7.3863107547109417e+00  1.6651686275720999e+02  5.2685995299965036e+00  7.2079124484085511e+01  2.2075263629495787e+01  1.6958388894058396e+02  4.6562723765891993e+00  2.7646687333857551e+00  1.3607533506242236e+01  1.7491111109001196e+02  1.8590710520027022e+02  1.8994396972155383e+02  1.7425905162298218e+02  1.7617666533801264e+02  4.8729832279517140e+00  3.2200982971351539e+02  2.5244513929371828e+02  2.4823485758281322e+01  2.0024485754591325e+01  1.8531584906207516e+02  5.2655988147374899e+01  1.7019592207949776e+02  1.3933351478907716e+02  1.3362960430118457e+02  2.7308614137106932e+01  5.9278721848232820e+01  6.5365494702923321e+00  3.8065702878707874e+01  8.9740361012876079e+01  1.5016596115620741e+01  1.7833421229031273e+02  2.9952326441109147e+02  3.8122060994017467e+01  2.1682005974522821e+02  2.3957460863499116e+02  2.6674255557581768e+02  1.7800790058454222e+01  1.0398794925092389e+01  1.7796608139055799e+01  9.2110775249572043e+00  1.1053519086951276e+01  8.4618186592389407e+01  1.1935849444020046e+02  1.8619935939907808e+01  6.2856470456974044e+01  1.6674282551849134e+02  4.2715153054242194e+01  8.5047214390846179e+01  4.1026589092853882e+01  6.5628874834762178e+02  2.3306223240633972e+01  4.0316676097512874e+00  4.5046888248123942e+01  1.7693817899900549e+02  1.7360564006725195e+01  2.2966863423062030e+01  3.3311637314485858e+00  8.9559343869421344e+00  2.5337654625481090e+01  5.5698713516380576e+02  1.6610391055924698e+01  2.7246912098472171e+02  2.5901502429325113e+01  1.1073799686095585e+02  8.6786229341152605e+01  6.8426159072133629e+01  2.3893361039063080e+01  5.8821642877238105e+00  1.0267228346281057e+02  2.8957441076688832e+02  2.5910969625395461e+02  1.7721841770391657e+02  1.9631147871451873e+01  2.0951541058664625e+02  8.0247295926043265e+01  8.9827588461634903e+01  2.8482302166220414e+01  9.5200683027053472e+00  1.3384247844065695e+02  5.2516429034770674e+01  3.1978212533106767e+01  7.0745064304274393e+01  3.8812312880993240e+01  2.5282393988650927e+01  4.2517732209913973e+01  1.7054594500283477e+02  1.4867569002421516e+02  1.4586020617047433e+02  1.5159216766865709e+01  4.2940880234189692e+01  1.1849410007378140e+01  5.1814983231631189e+00  2.7003140580664400e+01  2.6362636505160960e+01  2.5547687736503395e+01  1.9719989207310707e+01  1.9608735518877292e+01  3.3695252746114306e+01  2.2465690931735942e+01  3.0074781277259628e+01  1.4369096703392958e+02  3.1311519841860949e+01  1.4818749494000286e+02  1.1014768187807796e+02  9.7327789717685789e+01  2.3786721160097816e+01  2.4837418111228509e+01  3.9371374324448745e+01  2.2129426609759641e+01  2.2207601248670912e+01  7.0771141014292141e+01  2.1085153823580779e+02  6.0760057940461388e+02  2.6566408510812455e+01  2.6949706023273567e+01  2.6723958293227245e+01  2.7135176786763687e+01  2.6979690207517219e+01  2.6294017061602720e+01  2.7084761659798037e+01  5.5071824614003715e+00  5.1087636910502541e+00  2.6629514101158392e+01  1.9516140701758577e+01  5.9698447226256647e+01  8.4037911862146458e+01  1.7356269121102418e+01  6.4858597374204464e+01  2.4689784143782120e+01  3.2682893961792054e+01  4.8423161255218652e+01  3.8413748137651474e+01  1.0845621019859513e+01  1.4461552794848413e+02  2.5202209769405915e+01  2.4719318244853434e+02  8.0240905455449525e+00  6.2672701923477785e+00  2.4569024855492181e+01  8.9487256027565127e+00  </DataArray> 
</PointData> 
</Piece>
</UnstructuredGrid>
</VTKFile>