<?xml version="1.0"?>
<VTKFile type="UnstructuredGrid"  version="0.1"  >
<UnstructuredGrid>
<Piece  NumberOfPoints="758" NumberOfCells="1386">
<Points>
<DataArray  type="Float64"  NumberOfComponents="3"  format="ascii">-1.570796326794897 3.048 0  -1.570796326794897 0 0  1.570796326794897 0 0  1.570796326794897 3.048 0  0 0 0  0 3.048 0  -1.570796326794897 1.524 0  1.570796326794897 1.524 0  -0.04609926118424437 1.524 0  0.7853981633974483 0 0  0.7623485328053261 2.262242601661362 0  -0.7853981633974483 0 0  -0.7853981633974483 3.048 0  0.392699081698724 0.7745759241961347 0  -1.570796326794897 0.762 0  -0.8084477939895706 2.0955 0  -0.68277245543452 0.8915343570675713 0  0.7853981633974483 3.048 0  0.778743707341909 1.468410948960538 0  2.780093748954961e-16 2.285302774973185 0  -1.570796326794897 2.286 0  1.570796326794897 0.762 0  1.570796326794897 2.286 0  -0.9375370967763674 1.47348297960658 0  0.9831575747762593 0.9003629142671278 0  -0.3926990816987241 0.4064697549061488 0  1.177419588818055 1.905 0  0.3692901340097942 1.880893989147954 0  -0.4920225169641509 2.564371687128368 0  0.3926990816987241 3.048 0  1.178097245096172 0 0  1.155705348811136 2.643920532523289 0  -1.178097245096172 3.048 0  -1.178097245096172 0 0  -0.1391296372266528 0.8873724190154949 0  -1.10527745318919 2.528282743051346 0  -0.9817477042468103 0.4742759268549471 0  -0.3416666987802651 1.923944646262223 0  -1.570796326794897 1.905 0  -1.156555306160469 1.030861936336814 0  0.7648449098493205 0.4764142032227 0  0.3926990816987241 0 0  -0.4820376416180818 1.326151321396512 0  0.06374421723344185 0.4545169930886408 0  0.1972735722393064 1.163324878565267 0  0.3900417218314142 2.566922767651637 0  1.570796326794897 0.381 0  1.188877612935585 1.295195418509834 0  1.179914028402171 0.5308585702661928 0  0.7660075594126428 1.865233039449035 0  0.6330293131838399 1.095171663968746 0  -1.201232463242587 2.144287146570887 0  -0.3926990816987241 0 0  -0.3926990816987241 3.048 0  1.178097245096172 3.048 0  0.7684409382397209 2.649499271873753 0  -1.236954997304436 1.7145 0  -0.1088573452899617 2.666651387486592 0  -1.570796326794897 1.143 0  -1.570796326794897 0.381 0  1.570796326794897 1.143 0  1.570796326794897 1.905 0  1.570796326794897 2.667 0  -1.570796326794897 2.667 0  -0.6730839067294777 1.743003792473746 0  1.199831389396789 2.275437921225198 0  0.3936837537618041 1.495643752599615 0  0.01539369169800942 1.928544709491661 0  0.4156551272669651 0.4219033286010089 0  0.3401546043708642 2.225103550856524 0  -0.3379897306391274 2.262671266279809 0  -1.23624174049596 0.7000907110925838 0  -1.265224057170889 1.360131453617764 0  -0.1224339018241312 1.210043725539656 0  1.289286200625578 0.9918698881707442 0  -0.7751142346211329 1.197848666814478 0  1.003546186550495 0.2660297686099683 0  0.1963495408493621 2.808538634159524 0  -0.8079023568959116 2.703551618159924 0  -0.3480226984353056 1.610059855391589 0  1.075147893506229 1.598068412087719 0  -0.8290627893979112 2.399544545867518 0  0.6965048925255637 0.7972100472372819 0  -1.257765094876752 0.3107645483825858 0  -0.6724835324263325 0.5684215760013651 0  -0.3995059642389676 0.7173610149075536 0  0.9136951972244611 1.187564504803626 0  -0.964259350608907 0.8095514380783081 0  -0.7565990314517038 0.2897049735129544 0  -0.9603859887840651 1.834914433810327 0  -0.1457055965762301 0.2521630699436873 0  0.1963495408493621 0.2041911848053476 0  0.6241974196550791 0.231695999252114 0  -0.4098815011312292 1.029160072548571 0  0.9592800715482012 2.452820690856482 0  0.9648684169153161 2.840751931000357 0  0.5890486225480862 3.048 0  0.164631037784102 1.698913854044779 0  0.5664480837073581 2.070920238540226 0  1.374107957806476 1.7145 0  0.9861079629544779 2.102471438422718 0  -1.374446785945534 3.048 0  -1.288827800789186 2.762781313597598 0  1.353232957571468 2.835634774483438 0  1.302158670506274 0.2650078124691045 0  0.1394669809465775 0.8907702620243092 0  -0.5631487221059602 2.830992231257464 0  1.372837635547072 2.483038902756259 0  -0.1493395228831287 0.618617259260858 0  -1.32327048447753 2.378769394323546 0  0.56080204725298 1.699622905297025 0  1.570796326794897 2.0955 0  0.5403456747786348 2.786446773498672 0  -0.9817477042468103 0 0  -0.5847039960246873 2.326882432521036 0  0.1225428891326576 2.526494255738436 0  -0.9817477042468103 3.048 0  -0.5522901559753841 2.071668786267058 0  -1.370864794258017 0.9075071715671403 0  -1.043891045637083 1.250611220450313 0  -0.1652643923634778 2.09141301924679 0  -1.044446740946883 2.764982067459552 0  -0.1610370079820225 1.763280243096074 0  -0.3136912237752232 2.810498886211121 0  0.5400974078002052 2.370472734822523 0  -0.7009161718414544 1.427243880175582 0  0.902907438200502 0.6735032943420574 0  -0.9879196222361604 0.2371379634274736 0  1.319268546233604 0.7412771512308228 0  0.5578373583610097 0.608241627784878 0  0.5756483102040615 1.332636919938113 0  -0.5281701577409 0.2032348774530744 0  -0.266729509930448 2.489223923247521 0  -1.570796326794897 0.5715 0  -0.2430656531629531 1.405631921096758 0  0.253622337931223 0.5884397663452474 0  1.284044721043478 1.50372037617638 0  1.570796326794897 1.3335 0  -0.9904333867980613 2.235882060371517 0  0.9871146764618406 1.395690276854986 0  -1.374446785945534 0 0  0.3981951765262902 1.020833864419675 0  0.1670583512016766 1.405384478716078 0  -1.330327693484763 1.938638984813805 0  0.2106653067452682 2.040805097078886 0  1.570796326794897 0.5715 0  1.334822181490566 2.081373939821734 0  -0.9303227889097604 1.033236710715967 0  -1.34639228476592 1.150776798768373 0  -1.570796326794897 0.1905 0  1.106697207481837 1.099709897393925 0  0.4137866939027022 0.2104288000383385 0  -1.570796326794897 2.0955 0  0.9761377489246634 0.4754251272674608 0  1.377108465632662 0.4605024587280874 0  1.108114944719677 0.7297638044096917 0  0.3695908229138113 1.285681859811955 0  0.9799112840676307 1.800306505551499 0  -0.001696842075803034 1.042028929293442 0  1.366537356420357 1.185723700290463 0  -1.385029840108318 0.47625 0  0.05842649915411911 0.6874537157920781 0  -1.183268988745763 0.4997334438341218 0  -0.6073502281622543 1.081347079085406 0  -1.026941765261019 2.031536576622642 0  -1.570796326794897 2.8575 0  0.8159726599830506 1.011928543199529 0  0.7652782693277244 2.849245002237192 0  -0.5252326280373281 1.520125074885265 0  0.7648326174724897 2.063743853392348 0  0.757099741434616 1.666331708950521 0  -0.1963495408493621 3.048 0  -0.005410422648647092 2.843333256403111 0  -1.395368347654653 2.19075 0  1.374446785945534 0 0  0.9817477042468103 3.048 0  0.1963495408493621 0 0  -0.1963495408493621 0 0  0.5890486225480862 0 0  0.1963495408493621 3.048 0  0.9817477042468103 0 0  1.374446785945534 3.048 0  -0.5890486225480862 3.048 0  -0.5890486225480862 0 0  -0.06865319188571758 2.471928549109083 0  1.159049337209348 2.838090892449816 0  0.5817075150535711 2.596909954318943 0  0.7656515661107315 2.455866896253367 0  0.9620790410056582 2.647119292933887 0  0.3676829480103987 1.68739481709134 0  -0.8886101495223063 2.878912500124773 0  -0.3317793704126089 0.1873756770788371 0  -1.383208664444332 2.577695923010364 0  -1.043597917648523 1.648216005744782 0  -1.362178343413552 1.546177620526679 0  -1.570796326794897 1.7145 0  -0.8462722504471433 1.648434957877788 0  -0.588076822054871 0.3899352838051667 0  1.570796326794897 2.8575 0  -1.570796326794897 0.9525 0  1.570796326794897 0.1905 0  1.570796326794897 1.7145 0  1.570796326794897 0.9525 0  -1.570796326794897 1.3335 0  1.570796326794897 2.4765 0  -1.570796326794897 2.4765 0  0.8103777117362174 0.287468585434799 0  -1.145334531235929 1.881885620422454 0  -0.8620560674467429 0.6361265362229395 0  -0.321688879263093 1.207848147265888 0  -0.7798551871678058 1.904240998338365 0  -0.4724954359209014 1.769587110195458 0  -0.667402576232105 2.495985359319255 0  0.5365063314111709 0.8945566719544227 0  0.1855702280441107 2.342745654422604 0  0.55510120733165 1.88540118775351 0  1.188295809121239 2.460939894898248 0  1.38587897409014 2.260870763688798 0  1.383978812419919 1.901097375082534 0  -0.2265735189171196 1.049795314962436 0  0.7387890113368257 1.246392780742437 0  0.5763234466275948 1.516457524623135 0  -0.203279258075353 0.4348372558382012 0  -1.179202350299698 1.523245956950107 0  -1.151844216720993 2.318990544544152 0  -1.410806081599612 0.6547540757597369 0  0.04190096621848406 2.108399609871347 0  0.5925649981629265 0.4343292987553075 0  0.2371113691258682 0.4102816185532077 0  1.334103818253725 2.657728219912091 0  0.9405077369493808 2.275181409651143 0  -0.633962040105568 2.669303984283053 0  -0.6045614816381242 1.904349918307267 0  1.159697673803787 2.079238591118184 0  -0.004643801590645341 1.347662554528907 0  0.3691400131247499 2.395423267764724 0  0.3855005143298051 2.055603978165229 0  0.01839821075864462 0.1788084577298442 0  -0.9568120219060965 2.61629404172056 0  0.1783135820912846 1.871116340262054 0  0.3649950158263953 2.745288921627024 0  -0.3142054567155264 0.5671999812317062 0  -0.4933549623779417 0.564740705097546 0  0.06092775470575962 2.685867440722903 0  -0.1801827362748675 2.337517890002858 0  -1.063355415037434 0.6386189748554 0  -1.205242865599393 0.8676070232612285 0  -0.4176020549597784 2.412196127179313 0  -0.3347051678178828 2.093252344225509 0  -1.427772711006951 0.2857500000000001 0  0.8835729338221293 0.1362887052191026 0  -0.6831011505337878 0.1389086130988801 0  -1.403875662049666 1.77648180985222 0  1.394165436236593 1.362588987767805 0  -0.5007942298153729 0.8700626692351643 0  -0.6093220848169366 0.7321530406295067 0  0.007534593095922887 1.760126887057542 0  -1.276272015520854 0.140425968067263 0  -0.7270478511000733 2.847016806985676 0  1.436331331726002 0.85725 0  -0.1770320080670663 1.927167796173981 0  0.7200726153501196 0.6345534912379586 0  -1.099983122078282 0.3577316115390257 0  0.2324759135153202 2.648405702327079 0  0.9054371869972004 1.582409569434113 0  0.5000672234640285 1.188708149930449 0  -0.340793734207542
[...]
<PointData  Scalars="Elastic Energy"> 
<DataArray  type="Float64"  Name="Elastic Energy"  format="ascii">3.5077076088458328e+00  2.3194163333336231e+01  2.3195925183106826e+01  3.2415386092919278e+00  4.8078973721544443e+01  1.2452850501400915e+03  9.4527063928673751e+00  9.4968527096935009e+00  9.8839416145944057e+00  1.3609721852485726e+00  5.0909386124002580e+01  1.3825338292779394e+00  8.1996581741635197e+01  1.1216805131657347e+01  1.6404938737768543e+01  1.8789449511245856e+01  4.2357406912278721e+00  8.1125341839062955e+01  5.1532949016328020e+00  1.6436253916368997e+02  3.9693868691315295e+00  1.6478633413702063e+01  4.1189976150351617e+00  3.6086081720156242e+00  4.2061986881029796e+00  1.4595963890057448e+01  3.4226913770271667e+00  3.0158379717333588e+01  3.7938851470430201e+01  4.7946393945462624e+01  1.5290029505490802e+01  1.1972679799008800e+01  3.9288640223473145e+01  1.5371914319346136e+01  1.6519873278166781e+01  1.3700354643833819e+01  5.8626389133837211e+00  4.0097009009349492e+01  6.2855789179274639e+00  7.1641087758254178e+00  2.5548447958858391e+00  1.5596096371335529e+01  7.3611915577024361e+00  2.8092317224126855e+01  1.1878758135136387e+01  1.7605794689394806e+01  1.9979418193943417e+01  6.2376773488774671e+00  1.1575036930140868e+01  9.1881132589122672e+00  5.5199317727098158e+00  2.8825250747306415e+00  1.5423927222969674e+01  4.8423523295408266e+01  3.7272076877719755e+01  1.1081105628580109e+02  4.8061093097829577e+00  1.9860059019228760e+02  1.3083047607100980e+01  2.0011885426120319e+01  1.2926792968422978e+01  6.3719774811201360e+00  2.6572128616297568e+00  2.5474566926756279e+00  9.3453308189972333e+00  2.9518999211115200e+00  8.5542086493322849e+00  5.2955937087927637e+01  1.3101099985483728e+01  7.0300079347315076e+01  6.4137704772578417e+01  1.1763476754347042e+01  7.2880676262431745e+00  1.2491423481032674e+01  1.0665599522830666e+01  4.2974723032108368e+00  7.7982630882078032e+00  1.1836621879934212e+02  1.2773238235077483e+02  1.0420609869420376e+01  3.5210079757565320e+00  5.8445640544006146e+01  3.7826872776964393e+00  1.6028510436002765e+01  3.5437266535777323e+00  1.1428631554679210e+01  3.5247682813851102e+00  4.1127852822467057e+00  2.5202721323453612e+00  3.5507535077251475e+00  3.1654433409626744e+01  2.9769879028904398e+01  3.8392625398180256e+00  8.9738337034128950e+00  3.3278086828704154e+01  1.1646179085733971e+02  2.1458970733788412e+01  1.2822544407435329e+01  5.1172698213640551e+01  6.5620875593637829e+00  5.1089591478395135e+00  1.0264462497193567e+00  3.8376141640379684e+00  1.8942237058139957e+00  1.7476351384358580e+01  1.6543206973457210e+01  2.0442214492455616e+01  2.8154806491185194e+00  2.1599796636931881e+01  3.0855223016857218e+00  1.0169851470169034e+01  5.0616971340042332e+00  2.0053217853588780e+01  7.8433375041674580e+00  9.2899785694910108e+01  1.6747743203997706e+02  1.3395222653082851e+02  5.3665829148681041e+01  1.3159508319868673e+01  4.1799753014220240e+00  8.1337002640828089e+01  5.9933443505515370e+01  1.6391599098806854e+01  4.8083892776435810e+01  8.8434399239437226e+01  5.8903736927944026e+00  3.4830974249996784e+00  7.3044599299551818e+00  1.3497724485258951e+01  6.5132768499708371e+00  6.6255260987447473e+00  7.1316103900072472e+00  5.6309202569000803e+01  1.7979715687455748e+01  9.3708441447863287e+00  1.8691424786772195e+01  6.6941820730872346e+00  1.1164419060837062e+01  9.0973412130907416e+00  3.5684876457939749e+00  2.0579229405704549e+01  9.2884763491051672e+00  1.0143236992487395e+01  4.7350394610496860e+00  7.5168264791632183e+01  1.8118655938845244e+01  4.0895671060894161e+00  3.4997150422228072e+00  1.0545716932257596e+01  2.0733333926611436e+01  5.7041333676098294e+00  1.3989171726528769e+01  5.0619355441188754e+00  5.7434023225656290e+00  1.7315568631940309e+01  7.8593858396875147e+00  8.3774566773771504e+00  3.2163845116303644e+00  1.5307657647534555e+01  1.0628144265668251e+01  1.7333251974815486e+01  2.1767129573052433e+01  1.1992487426639769e+01  5.8260056144401764e+00  3.5215921905341578e+00  2.1693337288073882e+00  3.4251110923401913e+00  9.7681213914865424e+01  7.9958922881568348e+00  2.0853668763564212e+01  6.2807934556726153e+00  1.7847922160446785e+02  2.7862287437217685e+02  4.0085114070263321e+00  2.0640377112598085e+01  1.3267988283746880e+02  3.7262248513933621e+01  3.7474765034028295e+01  2.0410801090163848e+00  1.5939894367715115e+02  7.9699862396154364e+00  7.5788797228647942e-01  2.4985163966304956e+01  2.0756611306163006e+00  1.9339268004626277e+02  2.6678338837711731e+01  6.6853303081131969e+01  8.5648153676894410e+01  6.9728460572433960e+01  1.3099094904621687e+01  1.3403806428230129e+02  1.9921675702751894e+01  2.6091575580772610e+00  3.3441133792032836e+00  7.6340442633053263e+00  7.8373739714610835e+00  4.6967283094779146e+00  5.4290530341139300e+00  2.2811802811868840e+00  1.4767823247220786e+01  2.0638211094872691e+01  7.8117255466889954e+00  1.4915774277458885e+01  1.1298307772081959e+01  3.2713808246268936e+00  3.1862503785577068e+00  2.8880906407711793e+00  3.2350389971391369e+00  3.0184948839353476e+00  9.3679231071552227e+00  9.7128048159130298e+00  1.6345311705289294e+01  9.7074253259128341e+01  6.9201249221691006e+00  1.0104812174781812e+02  2.3099034476885652e+01  4.2555225983356815e+00  3.7485580614806544e+00  5.4737219016890410e+00  1.2429419616638356e+01  4.7317861487150097e+00  7.4726380502714864e+00  2.4089639597678236e+01  4.8721047024417983e+00  3.7236470428634805e+00  1.6120154941877807e+01  1.0281416725117502e+02  5.3241161633519445e+00  2.3274502072676423e+01  2.9210472742632065e+00  1.6311578625929943e+01  7.4744955617889659e+01  2.1313027114005425e+01  2.8439078210768889e+00  1.1697366528226446e+01  4.0186061530324224e+01  6.9194424957233807e+01  3.6355931391091424e+01  6.9658470325208540e+01  3.1747107191777079e+01  1.9838941424318111e+01  1.6555759075343310e+01  8.8657266602613589e+00  2.2978358771050858e+02  9.9656214660453145e+01  7.1710247886229137e+00  9.5420810623813015e+00  4.5902835609691500e+01  7.7588656682181153e+01  1.9760334752713032e+01  4.1238884558841962e+00  1.8496737988007463e+00  6.4750529834036596e+00  9.5386315429460886e+00  7.6854040953033120e+00  5.1998819262118552e+00  1.4692038669520706e+01  1.6582411563663527e+01  8.5586606072904061e+01  1.4716118610028184e+01  4.8650917749455793e+01  3.0660216366303841e+00  1.0551915076035641e+01  9.6701140418943083e+01  3.9426875595524518e+00  7.2011938164002789e+00  2.8491857360520584e+01  6.0527385506686526e+00  3.5402379167504137e+00  2.6260119672115674e+00  1.7348341518605345e+01  5.6845031534915243e+01  6.0736630489300119e+00  3.7671965550185718e+00  4.1372855385327902e+00  7.2565980851577434e+00  6.9606751304206123e+00  1.0457388603466921e+01  1.0642641380685918e+01  7.1232610251068467e+00  4.6117451024375695e+00  1.7139852423311787e+01  1.0041636149325891e+01  2.9431148262831215e+01  2.9916997431207997e+00  1.2155655374197648e+01  1.6496563628923688e+01  3.1370960317796683e+00  1.7615114658746826e+01  1.1675688535475308e+02  1.3040535971025051e+01  3.8751570382548003e+01  9.7035878422004753e+00  9.8518491457796440e+00  1.3379554322002301e+01  7.4090567662967066e+00  1.2016929620544126e+01  3.0494822899009989e+01  9.2094180292552664e+01  3.0191198347817800e+00  8.3116876265904054e+00  4.6131172612555629e+00  1.2611847099760743e+01  1.6552154410452349e+01  4.3895241301513641e+00  8.3913083755215254e+01  8.9386562866680464e+01  8.3543795730198234e+00  1.3213201812193102e+01  3.0902018462857503e+00  7.5807440008914346e+00  1.4252425146950327e+00  2.1001380008556696e+00  5.5447754640092164e+00  3.7263610870119694e+00  4.2896660138826919e+00  5.7524607829255894e+00  1.6540815722455928e+01  1.9469834157747048e+01  1.9547484729569064e+01  8.7058828789347746e+00  3.0207767320737837e+01  1.9521052133780294e+01  3.9357170121890261e+00  1.2636503304766862e+01  1.1537865361866235e+01  5.1864933128732655e+00  2.9843436040075484e+00  8.8205972743476515e+00  2.3224526813851622e+02  9.9466195278429055e+00  7.0344960607651794e+00  5.3808980296479136e+00  8.4809234379177539e+01  7.0994815652940115e+00  3.0203776753983568e+01  4.1023736362214809e+00  3.0118511067062119e+01  2.2612352172000584e+01  8.5122146260910689e+00  1.5002407037272965e+00  1.2012965328085285e+01  2.0201364479836339e+01  2.3231464553251268e+01  3.5003974090662261e+01  3.5743913573104549e+00  6.6866305768751587e+01  1.0628203547216287e+02  2.2230583085800692e+01  1.7666201140080638e+01  6.3086489771510781e+00  1.4784884299050931e+01  1.0212726285277991e+01  2.3116309450043008e+01  2.0161663172235635e+00  9.3864945549159291e+00  4.2406363741268507e+00  1.8569023260811019e+01  8.6725458017276679e+01  1.3138053625096776e+02  1.1550455935045849e+02  4.9586762963028264e+01  1.9207572242048240e+01  8.1520672537908965e+01  9.4012986531938285e+00  3.4474544499932924e+00  7.0631944411735939e+00  5.4502549648504015e+01  4.8217779047705855e+00  8.5500498148213921e+00  1.2731256395581283e+00  9.6423736931150685e+00  9.9891303060244727e+00  1.8662244930216843e+02  2.6072141959775115e+00  2.9813302375202650e+00  5.3909264614247778e+00  7.7759180832427761e+00  2.6127352117541754e+01  1.4404017574405925e+01  3.0244853890818755e+00  8.2456475044060422e+00  5.7881512970307298e+00  1.9075847717353021e+01  7.8783051094938719e+00  3.1915789518492397e+00  7.6021235128986405e+01  1.0823734469994065e+01  7.2371306992521582e+01  5.0007075749586029e+01  4.9271003016093493e+00  3.1001556712619398e+00  3.7581560376197500e+00  3.7973091272325172e+00  6.3394017318303080e+00  6.9311034126868583e+00  1.8383572901410098e+01  9.3919267120564776e+00  1.0821575154872193e+01  1.7360726353772691e+01  3.8200248555171818e+01  2.7331931400891447e+00  2.1161445585883502e+01  1.2631536510118481e+01  1.1767653723828786e+01  4.0157660049441066e+00  4.4071126842587187e+00  1.4273024231215762e+01  1.5300483332330749e+01  8.1223864922037947e+00  7.8303298540874152e+01  3.3907713511667965e+00  1.1177910644247777e+02  8.7588557321790415e+00  1.3780489572911184e+01  3.4103269791395384e+01  1.1382355450089229e+01  4.8857030159343708e+01  8.4091840523034040e+00  4.9154751923890203e+01  7.7963547768246997e+00  3.4211892102274182e+00  9.2269151813110653e+01  2.2099856393090673e+02  2.7967919912916397e+01  1.1556672227697490e+01  4.4873585186919653e+00  4.4725764575129627e+00  1.2758413131311832e+01  1.0284675365222613e+01  8.9999399240370337e+01  9.6156384694572438e+01  4.9030836039288197e+01  5.0164978908587967e+00  3.6271777715544729e+00  4.1798652967835643e+00  3.7609751527777577e+00  6.7803438058299250e+01  7.0621113867755954e+00  6.0496237812617775e+00  1.0894731437329789e+01  3.2726377221449252e+00  9.9650627898868962e+01  2.0500847968980608e+01  7.3706428514223870e+00  5.6950741382810985e+00  3.7761696968365759e+00  1.1689656415397327e+01  9.9235310168021229e+00  8.7443109248387092e+00  2.7331517002930870e+01  8.3621723894409115e+01  1.0382344860359165e+01  1.5746249413695500e+01  4.9303984867038650e+00  3.2352187162079034e+01  6.5716542577025834e+00  5.2195798275207252e+00  2.7929408412172436e+00  2.8711871754605967e+00  3.7106514380737012e+00  4.1131520408814062e+01  9.6957331565585250e+00  4.1707176139738484e+00  1.4933331982258647e+02  3.7003992144257246e+01  1.9161553559791049e+01  3.8272065753000692e+00  1.2403784537210770e+01  7.0103955818171695e+00  3.1829816722266693e+00  3.7677999669418551e+00  7.8912011398400308e+00  9.9840522631361335e+00  9.8182644968305333e+00  6.5472191324150923e+00  2.3891965853940458e+00  2.4745977430547363e+01  6.1602492914086827e+02  2.3816340661722521e+01  1.7363038198301069e+01  9.5716317956026540e+00  6.1086500640954835e+00  1.9884582769080730e+01  1.4860424413256270e+01  3.6571626233688077e+00  1.1802279286627853e+01  1.2269191817880680e+01  1.0063658153069543e+01  2.8138745456332694e+00  9.9564407654813802e+00  7.1506764847739444e+00  7.2976263825509626e+00  6.0814057459893945e+01  2.5610514336490169e+01  1.8143082676205182e+02  8.5669075891713490e+01  4.3932286531055720e+00  2.0728518297739971e+01  3.3835753082822926e+00  6.1269889885067826e+01  4.5946604734160154e+01  7.1284335615545444e+01  1.4123958129553710e+01  3.7122963615551021e+02  9.0821804388569642e+00  2.9369884354181042e+00  1.9014273184073105e+01  3.0919398092954022e+00  5.1388925350547545e+00  1.8071873140882307e+01  5.7448117427741616e+00  4.1409650491381074e+00  1.9632670781554573e+01  4.7823557424793721e+00  6.8479035389910052e+01  2.3648209654104542e+00  1.0344421004986277e+01  3.5725525978205890e+00  3.9285653482307477e+00  2.2950571511662591e+01  2.1730034405042478e+01  3.8699141022300654e+00  6.2687004251253512e+01  3.5523243988324831e+00  4.6359817043537204e+00  6.6226441486457119e+00  1.7785043799771334e+00  2.1711461867654069e+01  8.6441891979058436e+00  3.3243216296053198e+01  2.7659839317463756e+01  4.4022365960079945e+01  6.4724724942689962e+00  4.9194871493095791e+00  6.4008239416674982e+01  2.9593718597375624e+00  1.2556175797485887e+01  5.2657566751390688e+00  7.7618678316472938e+01  3.8715483420869234e+00  6.3415849026164430e+00  6.0209236977620364e+00  4.0999938511659133e+00  9.8109351171537625e+01  1.4815945555134665e+01  1.1781627942782350e+01  9.8386771490038427e+00  7.3996610839681729e+00  7.1586651179086980e+00  4.2539572159607628e+00  8.7155177011545586e+00  7.0676478003631189e+00  2.6095305772468734e+01  7.9761055823141502e+00  2.5495497390472796e+01  3.5827524916807376e+00  2.8370909579073968e+00  1.8541402285144905e+01  1.1312315653180368e+01  9.1841709305917085e+00  7.8349042818833556e+00  1.0327860043363654e+02  1.1884800716206932e+02  3.6604313311135845e+00  1.8968682566636769e+01  1.9028835039387054e+01  1.7645311138485489e+01  1.7788607873896542e+01  1.4933821570309961e+01  1.1002884058144577e+01  1.2393840803906544e+01  7.8881554100883440e+00  1.0897177980796791e+01  1.3136962565373487e+01  1.0733956002558639e+02  1.7310450944044707e+01  6.3471964563721066e+00  2.5812738959114498e+00  2.9746238841993358e+00  3.6278281944328192e+00  2.9991387661771789e+00  1.4755847405864797e+01  9.3151278391563110e+00  1.0576137530934192e+01  3.0757524994931105e+00  1.6208267244719892e+01  8.5341220934900207e+01  3.7130764747128975e+00  5.1916201658413401e+00  1.7476776437903048e+01  2.1917965570289098e+02  2.4725010890951947e+02  1.1533010599924468e+01  3.4794688281000083e+00  4.6729326296041638e+00  4.7424252812507159e+00  5.6430735133701141e+01  3.1972297312403075e+01  7.0741969381229461e+00  2.0434167237907911e+01  2.2211770485597821e+01  2.5838210260326353e+01  7.3346878427410873e+00  5.4492678838755193e+00  1.2537141147646862e+01  6.0472014478695630e+00  8.3188946406381135e+00  9.3217947786747395e+00  1.4443004077894097e+01  2.7290779000756547e+01  1.3435997226057529e+01  5.5154372906033160e+00  4.6414988434741167e+00  4.3790642907734316e+00  4.9191222643136019e+00  3.6183287876120027e+00  3.3955291388153235e+00  3.3983644912838638e+00  7.7241430616514100e+00  7.2475750187740090e+01  1.3772489792259419e+01  3.5726259029675820e+00  7.3608455816871199e+01  1.1103786225626776e+02  4.6298000556466308e+00  1.0964208233428618e+01  8.8574821475324796e+00  1.1411835453662935e+01  7.8866497862413709e+00  7.7789629890325251e+00  6.1152951030836862e+00  2.1000224112473336e+00  1.9375820335737899e+02  1.3195630693667661e+02  9.1696924701857903e+00  5.6963487372099024e+00  7.0343732056986283e+00  9.0334641345495506e+00  7.3803695630224464e+00  1.6789144772575380e+01  1.3585152788931579e+01  1.0382352798356472e+01  3.0342540827497166e+00  2.6430913435134573e+00  1.5273082757503351e+01  1.6211689882758286e+01  4.8303896340385828e+00  6.5386266533285982e+00  1.1640742095175698e+02  2.5880189231500985e+01  2.2803909486587237e+00  1.9759013007373414e+00  1.1266556902586973e+02  7.5274933060673646e+01  7.0349130430690829e+00  1.3840779087696665e+01  4.3094842766063968e+00  6.8768103138390089e+00  4.7386282038192121e+01  9.4219358612198818e+01  1.1933323236189105e+02  8.7989402267445797e+01  8.0288300224817064e+00  3.5101491852753938e+01  4.7604325567886796e+01  2.6364111319708002e+01  3.6512347478402387e+02  1.8688027016575205e+01  5.4369523964274102e-01  3.7545262605790185e+01  1.1209330548493719e+02  1.1656199706119766e+01  1.8444427541087254e+01  4.3064282067795312e-01  4.1434040843340121e+00  2.2290908230598145e+01  1.9707134318425314e+00  3.9287382642269044e+01  7.6723985837814312e-01  1.9102800634639632e+01  7.9601601153858610e+00  1.1083810492577033e+01  9.3271522740724695e+00  2.0389432857800184e+01  4.8181606415925442e+00  4.7054281271451515e+01  1.4137113269812735e+02  1.3022794716210802e+02  6.1578826081700178e+01  1.3246590260853372e+02  8.4736592228874290e+00  6.6990879870704944e+01  3.8752975880282037e+01  3.6574656011140014e+01  1.3010831870107540e+02  3.1151368494933731e+01  8.7318828305148585e+01  9.5160750314982579e+01  5.7434497236452259e+01  1.9788581659773357e+01  9.9640319044641856e+00  3.7313207316681787e+00  5.4666143898609674e+00  1.0082015481258029e+01  1.3044690138883100e+01  1.3464389354267735e+02  1.0930481371394005e+02  1.2778726133208839e+02  3.4053653918698163e+00  1.7336789487737970e+01  2.0616101231628043e+01  2.0335777079514120e+01  8.3277645716509081e+00  1.8489376729172871e+01  2.6936746444738134e+01  2.3728995617473569e+01  1.9819208224035403e+01  8.1868310380219622e+00  1.8829915010538571e+01  4.8699510076024104e+01  2.9132772097952571e+00  3.0591828462017854e+00  1.2147159823973048e+01  8.3471167459993580e+01  4.2169618728792848e+00  8.4903221737826016e+00  8.5239765369893838e+00  2.8906716368315677e+00  2.1658159847621699e+00  2.4242347215794799e+00  1.8963021049064466e+01  1.5609483981887776e+01  1.3833326129476971e+01  1.3881444472355591e+01  1.5516178240134080e+01  2.0638097698860008e+01  1.2087250104112506e+01  5.5351024254767713e+00  5.5849353659433625e+00  1.2009583067209116e+01  3.5435155128463918e+00  3.2409881930664845e+01  3.1497088748958017e+01  1.3669395876870221e+01  6.3623336741439125e+01  4.3863537428376791e+00  3.9210891391787714e+00  3.5615180585497317e+00  7.7377419140089046e+01  7.1008662482381922e+01  6.8206005810094325e+01  1.0380290367654366e+01  1.0480011543745982e+00  7.8271871263337786e+01  9.6246688299277636e+01  1.7860869807251611e+01  5.3539034305607892e+01  </DataArray> 
</PointData> 
</Piece>
</UnstructuredGrid>
</VTKFile>