<?xml version="1.0"?>
<VTKFile type="UnstructuredGrid"  version="0.1"  >
<UnstructuredGrid>
<Piece  NumberOfPoints="758" NumberOfCells="1386">
<Points>
<DataArray  type="Float64"  NumberOfComponents="3"  format="ascii">-1.570796326794897 3.048 0  -1.570796326794897 0 0  1.570796326794897 0 0  1.570796326794897 3.048 0  0 0 0  0 3.048 0  -1.570796326794897 1.524 0  1.570796326794897 1.524 0  -0.04609926118424437 1.524 0  0.7853981633974483 0 0  0.7623485328053261 2.262242601661362 0  -0.7853981633974483 0 0  -0.7853981633974483 3.048 0  0.392699081698724 0.7745759241961347 0  -1.570796326794897 0.762 0  -0.8084477939895706 2.0955 0  -0.68277245543452 0.8915343570675713 0  0.7853981633974483 3.048 0  0.778743707341909 1.468410948960538 0  2.780093748954961e-16 2.285302774973185 0  -1.570796326794897 2.286 0  1.570796326794897 0.762 0  1.570796326794897 2.286 0  -0.9375370967763674 1.47348297960658 0  0.9831575747762593 0.9003629142671278 0  -0.3926990816987241 0.4064697549061488 0  1.177419588818055 1.905 0  0.3692901340097942 1.880893989147954 0  -0.4920225169641509 2.564371687128368 0  0.3926990816987241 3.048 0  1.178097245096172 0 0  1.155705348811136 2.643920532523289 0  -1.178097245096172 3.048 0  -1.178097245096172 0 0  -0.1391296372266528 0.8873724190154949 0  -1.10527745318919 2.528282743051346 0  -0.9817477042468103 0.4742759268549471 0  -0.3416666987802651 1.923944646262223 0  -1.570796326794897 1.905 0  -1.156555306160469 1.030861936336814 0  0.7648449098493205 0.4764142032227 0  0.3926990816987241 0 0  -0.4820376416180818 1.326151321396512 0  0.06374421723344185 0.4545169930886408 0  0.1972735722393064 1.163324878565267 0  0.3900417218314142 2.566922767651637 0  1.570796326794897 0.381 0  1.188877612935585 1.295195418509834 0  1.179914028402171 0.5308585702661928 0  0.7660075594126428 1.865233039449035 0  0.6330293131838399 1.095171663968746 0  -1.201232463242587 2.144287146570887 0  -0.3926990816987241 0 0  -0.3926990816987241 3.048 0  1.178097245096172 3.048 0  0.7684409382397209 2.649499271873753 0  -1.236954997304436 1.7145 0  -0.1088573452899617 2.666651387486592 0  -1.570796326794897 1.143 0  -1.570796326794897 0.381 0  1.570796326794897 1.143 0  1.570796326794897 1.905 0  1.570796326794897 2.667 0  -1.570796326794897 2.667 0  -0.6730839067294777 1.743003792473746 0  1.199831389396789 2.275437921225198 0  0.3936837537618041 1.495643752599615 0  0.01539369169800942 1.928544709491661 0  0.4156551272669651 0.4219033286010089 0  0.3401546043708642 2.225103550856524 0  -0.3379897306391274 2.262671266279809 0  -1.23624174049596 0.7000907110925838 0  -1.265224057170889 1.360131453617764 0  -0.1224339018241312 1.210043725539656 0  1.289286200625578 0.9918698881707442 0  -0.7751142346211329 1.197848666814478 0  1.003546186550495 0.2660297686099683 0  0.1963495408493621 2.808538634159524 0  -0.8079023568959116 2.703551618159924 0  -0.3480226984353056 1.610059855391589 0  1.075147893506229 1.598068412087719 0  -0.8290627893979112 2.399544545867518 0  0.6965048925255637 0.7972100472372819 0  -1.257765094876752 0.3107645483825858 0  -0.6724835324263325 0.5684215760013651 0  -0.3995059642389676 0.7173610149075536 0  0.9136951972244611 1.187564504803626 0  -0.964259350608907 0.8095514380783081 0  -0.7565990314517038 0.2897049735129544 0  -0.9603859887840651 1.834914433810327 0  -0.1457055965762301 0.2521630699436873 0  0.1963495408493621 0.2041911848053476 0  0.6241974196550791 0.231695999252114 0  -0.4098815011312292 1.029160072548571 0  0.9592800715482012 2.452820690856482 0  0.9648684169153161 2.840751931000357 0  0.5890486225480862 3.048 0  0.164631037784102 1.698913854044779 0  0.5664480837073581 2.070920238540226 0  1.374107957806476 1.7145 0  0.9861079629544779 2.102471438422718 0  -1.374446785945534 3.048 0  -1.288827800789186 2.762781313597598 0  1.353232957571468 2.835634774483438 0  1.302158670506274 0.2650078124691045 0  0.1394669809465775 0.8907702620243092 0  -0.5631487221059602 2.830992231257464 0  1.372837635547072 2.483038902756259 0  -0.1493395228831287 0.618617259260858 0  -1.32327048447753 2.378769394323546 0  0.56080204725298 1.699622905297025 0  1.570796326794897 2.0955 0  0.5403456747786348 2.786446773498672 0  -0.9817477042468103 0 0  -0.5847039960246873 2.326882432521036 0  0.1225428891326576 2.526494255738436 0  -0.9817477042468103 3.048 0  -0.5522901559753841 2.071668786267058 0  -1.370864794258017 0.9075071715671403 0  -1.043891045637083 1.250611220450313 0  -0.1652643923634778 2.09141301924679 0  -1.044446740946883 2.764982067459552 0  -0.1610370079820225 1.763280243096074 0  -0.3136912237752232 2.810498886211121 0  0.5400974078002052 2.370472734822523 0  -0.7009161718414544 1.427243880175582 0  0.902907438200502 0.6735032943420574 0  -0.9879196222361604 0.2371379634274736 0  1.319268546233604 0.7412771512308228 0  0.5578373583610097 0.608241627784878 0  0.5756483102040615 1.332636919938113 0  -0.5281701577409 0.2032348774530744 0  -0.266729509930448 2.489223923247521 0  -1.570796326794897 0.5715 0  -0.2430656531629531 1.405631921096758 0  0.253622337931223 0.5884397663452474 0  1.284044721043478 1.50372037617638 0  1.570796326794897 1.3335 0  -0.9904333867980613 2.235882060371517 0  0.9871146764618406 1.395690276854986 0  -1.374446785945534 0 0  0.3981951765262902 1.020833864419675 0  0.1670583512016766 1.405384478716078 0  -1.330327693484763 1.938638984813805 0  0.2106653067452682 2.040805097078886 0  1.570796326794897 0.5715 0  1.334822181490566 2.081373939821734 0  -0.9303227889097604 1.033236710715967 0  -1.34639228476592 1.150776798768373 0  -1.570796326794897 0.1905 0  1.106697207481837 1.099709897393925 0  0.4137866939027022 0.2104288000383385 0  -1.570796326794897 2.0955 0  0.9761377489246634 0.4754251272674608 0  1.377108465632662 0.4605024587280874 0  1.108114944719677 0.7297638044096917 0  0.3695908229138113 1.285681859811955 0  0.9799112840676307 1.800306505551499 0  -0.001696842075803034 1.042028929293442 0  1.366537356420357 1.185723700290463 0  -1.385029840108318 0.47625 0  0.05842649915411911 0.6874537157920781 0  -1.183268988745763 0.4997334438341218 0  -0.6073502281622543 1.081347079085406 0  -1.026941765261019 2.031536576622642 0  -1.570796326794897 2.8575 0  0.8159726599830506 1.011928543199529 0  0.7652782693277244 2.849245002237192 0  -0.5252326280373281 1.520125074885265 0  0.7648326174724897 2.063743853392348 0  0.757099741434616 1.666331708950521 0  -0.1963495408493621 3.048 0  -0.005410422648647092 2.843333256403111 0  -1.395368347654653 2.19075 0  1.374446785945534 0 0  0.9817477042468103 3.048 0  0.1963495408493621 0 0  -0.1963495408493621 0 0  0.5890486225480862 0 0  0.1963495408493621 3.048 0  0.9817477042468103 0 0  1.374446785945534 3.048 0  -0.5890486225480862 3.048 0  -0.5890486225480862 0 0  -0.06865319188571758 2.471928549109083 0  1.159049337209348 2.838090892449816 0  0.5817075150535711 2.596909954318943 0  0.7656515661107315 2.455866896253367 0  0.9620790410056582 2.647119292933887 0  0.3676829480103987 1.68739481709134 0  -0.8886101495223063 2.878912500124773 0  -0.3317793704126089 0.1873756770788371 0  -1.383208664444332 2.577695923010364 0  -1.043597917648523 1.648216005744782 0  -1.362178343413552 1.546177620526679 0  -1.570796326794897 1.7145 0  -0.8462722504471433 1.648434957877788 0  -0.588076822054871 0.3899352838051667 0  1.570796326794897 2.8575 0  -1.570796326794897 0.9525 0  1.570796326794897 0.1905 0  1.570796326794897 1.7145 0  1.570796326794897 0.9525 0  -1.570796326794897 1.3335 0  1.570796326794897 2.4765 0  -1.570796326794897 2.4765 0  0.8103777117362174 0.287468585434799 0  -1.145334531235929 1.881885620422454 0  -0.8620560674467429 0.6361265362229395 0  -0.321688879263093 1.207848147265888 0  -0.7798551871678058 1.904240998338365 0  -0.4724954359209014 1.769587110195458 0  -0.667402576232105 2.495985359319255 0  0.5365063314111709 0.8945566719544227 0  0.1855702280441107 2.342745654422604 0  0.55510120733165 1.88540118775351 0  1.188295809121239 2.460939894898248 0  1.38587897409014 2.260870763688798 0  1.383978812419919 1.901097375082534 0  -0.2265735189171196 1.049795314962436 0  0.7387890113368257 1.246392780742437 0  0.5763234466275948 1.516457524623135 0  -0.203279258075353 0.4348372558382012 0  -1.179202350299698 1.523245956950107 0  -1.151844216720993 2.318990544544152 0  -1.410806081599612 0.6547540757597369 0  0.04190096621848406 2.108399609871347 0  0.5925649981629265 0.4343292987553075 0  0.2371113691258682 0.4102816185532077 0  1.334103818253725 2.657728219912091 0  0.9405077369493808 2.275181409651143 0  -0.633962040105568 2.669303984283053 0  -0.6045614816381242 1.904349918307267 0  1.159697673803787 2.079238591118184 0  -0.004643801590645341 1.347662554528907 0  0.3691400131247499 2.395423267764724 0  0.3855005143298051 2.055603978165229 0  0.01839821075864462 0.1788084577298442 0  -0.9568120219060965 2.61629404172056 0  0.1783135820912846 1.871116340262054 0  0.3649950158263953 2.745288921627024 0  -0.3142054567155264 0.5671999812317062 0  -0.4933549623779417 0.564740705097546 0  0.06092775470575962 2.685867440722903 0  -0.1801827362748675 2.337517890002858 0  -1.063355415037434 0.6386189748554 0  -1.205242865599393 0.8676070232612285 0  -0.4176020549597784 2.412196127179313 0  -0.3347051678178828 2.093252344225509 0  -1.427772711006951 0.2857500000000001 0  0.8835729338221293 0.1362887052191026 0  -0.6831011505337878 0.1389086130988801 0  -1.403875662049666 1.77648180985222 0  1.394165436236593 1.362588987767805 0  -0.5007942298153729 0.8700626692351643 0  -0.6093220848169366 0.7321530406295067 0  0.007534593095922887 1.760126887057542 0  -1.276272015520854 0.140425968067263 0  -0.7270478511000733 2.847016806985676 0  1.436331331726002 0.85725 0  -0.1770320080670663 1.927167796173981 0  0.7200726153501196 0.6345534912379586 0  -1.099983122078282 0.3577316115390257 0  0.2324759135153202 2.648405702327079 0  0.9054371869972004 1.582409569434113 0  0.5000672234640285 1.188708149930449 0  -0.340793734207542
[...]
<PointData  Scalars="Elastic Energy"> 
<DataArray  type="Float64"  Name="Elastic Energy"  format="ascii">1.5592195586295545e+03  2.1221940325044656e+01  2.1346949981428942e+01  1.5062480186633213e+03  6.9579349116838245e+01  3.7243513543808222e+03  1.6746122490682765e+01  1.6794091111990575e+01  3.1851531117009529e+02  5.2103229223154655e+00  4.0002724429324367e+01  5.2109203446532195e+00  1.7621802882332659e+01  1.2787467391313261e+02  2.2593482943072935e+01  9.3267668750635409e+01  7.8335175633834695e+01  1.7100680141034520e+01  1.9145480867344884e+02  3.4344133284343627e+02  4.0413044335104502e+01  2.2977355375175367e+01  4.0051652887766188e+01  1.3094750061564133e+02  3.6818554053136752e+00  3.4000263659849054e+01  1.0674221633503650e+02  6.6934171828999084e+01  3.7075915324961130e+01  8.4984400021615230e+01  1.6433357514795134e+01  2.0001852834566517e+02  1.0488128672069389e+02  1.6304768970826082e+01  2.0950109576910131e+02  1.9302406262187415e+02  3.2266796430003972e+00  9.4664423159727534e+01  2.3000010892431582e+00  4.5077601272582939e+00  8.1040591542762126e+00  2.1998649775162328e+01  1.0342957910449229e+02  1.2283844089740317e+01  1.3460678460033870e+02  7.8688116651651910e+01  2.2026804206370674e+01  8.1894849332524835e+00  1.0495961434465963e+01  1.2129064050542718e+02  2.0310694233704254e+02  1.4523813984803252e+02  2.0785164366559197e+01  7.6005605286404304e+01  1.0023922291919052e+02  3.2473134415008715e+00  3.8586688421028533e+01  3.6842203345234714e+02  2.4858485639821122e+01  2.1870979825901514e+01  2.4343279637027592e+01  2.4713195258777967e+00  3.2044075147320052e+02  3.4032045475174800e+02  9.4095171572051626e+01  1.9143775762421680e+02  3.0140180879887588e+01  3.2729247059436682e+02  3.5014981524163950e+01  1.1664984522019546e+02  1.2132313699679970e+02  1.1988185654781482e+01  8.3079994680689406e+00  2.4350297086776482e+02  1.2679949602934581e+01  1.5025680853984272e+02  6.6049916663803563e+00  2.0764125655919705e+02  4.3384520764820103e+00  5.4263240445051629e+01  8.8178860019880304e+01  4.1048633634245959e+01  4.1791252558721474e+01  1.6151839192860802e+01  1.8639921031524061e+01  9.6414887261450232e+01  6.8529129291864152e+01  2.3808469346898922e+00  6.7691020023474433e+00  1.7408557710944928e+02  2.9180080226208805e+01  3.3090807952318940e+01  1.3843279147989518e+01  2.1997253272393866e+02  9.4525771068057210e+01  1.4988002884494039e+01  3.3301494843898524e+01  2.4929297657356130e+02  4.0688952026877647e+00  1.1726941830201639e+01  1.8805707252650456e+02  4.1491526274875139e+02  2.7311352564461777e+02  3.7549389648935067e+02  1.7863826795107240e+01  2.2355560763848794e+02  2.6979760896957256e+01  1.7970893160194476e+02  3.5662061692886418e+01  1.6292471833429698e+02  3.8522325528766459e+01  1.1323814121117282e+01  2.6576940396058312e+01  1.0698376435463206e+01  6.6659758115797842e+00  3.1450669708178219e+02  2.8523064287984528e+01  8.0107038713368510e+00  1.7987841068668843e+01  2.5656165558182465e+01  2.6415496156441139e+02  5.8920180431152559e+01  2.5794802615976147e+02  1.1325753190089492e+02  1.8398584274125056e+01  2.0384173181280238e+02  3.4626360679196417e+00  6.3902696765246105e+00  1.6085108081763483e+01  3.8841910675001081e+01  1.6289627706143622e+02  1.9922327526457632e+01  1.7430371735429625e+02  2.1928394435528936e+01  1.2118534530053013e+02  4.5773054280470419e+01  1.2582303886354595e+01  2.3394414616119136e+01  1.6108105431858246e+02  8.2660913521013100e+01  1.9656358743549053e+01  2.4074477811767306e+02  2.1462441416114120e+02  3.1995239092440585e+01  2.2936929429562250e+02  2.2369783235054395e+01  5.6690515318827678e+01  2.1570115818575651e+01  1.5239723627742867e+01  2.0777506775279040e+01  4.3500205743562459e+00  2.8422661155205507e+01  8.6488127645578441e+00  3.1691969317117219e+00  1.9294558933048329e+01  4.6436660192898280e+00  4.5356816222048622e+01  1.8118379629490909e+02  2.7656272750977939e+02  1.6386304669030974e+01  1.9433255667178457e+01  7.2386492077470109e+01  1.1003429152278208e+01  2.0920888283237281e+02  1.7974216561873340e+02  1.0538402394444972e+03  5.6591365911519468e+01  5.9197311793834260e+00  5.7161181713512633e+01  8.4275665112979667e+01  1.8768974621663310e+02  3.9544994994010739e+02  5.5034368072192729e+02  5.4836499423606227e+01  1.9838794637602330e+01  2.9091281656870368e+01  5.1326427998703032e+01  5.2110573701672671e+01  7.1530100289703720e+00  2.9033393793416832e+02  1.0903918871145818e+01  3.7626944683584276e+02  3.2729667111137715e+01  6.7083986144476313e+00  3.4741462640818162e+02  1.1278767327931349e+02  1.5163082886239582e+01  1.2973694684136722e+01  4.6572081355477650e+01  4.8610200359311250e+01  4.4462783025206845e+00  3.1266224931008040e+01  2.1280645784264286e+02  1.1418330928574684e+02  1.2425224212456236e+01  8.3284920680141017e+00  1.9155465574758307e+02  2.1305836260379955e+01  8.3152917444968170e+02  2.3350387037251945e+01  2.0753760779950436e+01  8.1118573012996666e+00  2.3916868707802340e+01  2.3637285225531134e+01  1.2054859803474433e+02  1.1938088770914996e+02  4.8805032833154174e+00  1.0931823050926971e+02  4.6758367637213194e+00  5.2938971685863365e+01  1.2224605730637649e+02  1.2187754786912373e+01  3.4058431078973803e+00  1.6374477831121328e+02  2.5817042539471572e+02  1.6057611741068175e+01  2.1334825479606309e+02  8.5643719103265383e+01  1.5263543388139482e+01  1.0273396781513387e+02  1.7895307513294938e+02  9.1839721858277457e+01  2.4852156711662744e+01  2.8668457370438169e+01  2.1696532230333040e+02  2.0032627951102953e+01  3.3899694925036056e+02  2.2605793259773144e+01  2.8031413523495470e+01  2.9701752176456830e+02  1.3217516379860916e+02  8.3448642711489107e+00  2.8419435050652567e+01  1.6173467497565031e+02  3.2327795574347442e+02  9.8318321480113795e+01  7.2981677423980571e+01  3.1840339110911518e+01  5.7806759717815993e+01  2.4133959463633286e+02  7.7839988251810354e+01  4.3779719007659857e+01  4.0101873806176272e+01  4.3573145804987513e+02  2.6226649531586116e+02  3.8004738200805481e+00  8.2995821900464897e+00  6.8861577688868991e+01  1.1806499017414072e+02  2.0512668808137725e+01  5.0546866866586564e+00  7.2550534049400204e+00  9.4348365075177245e+00  1.5814560861353305e+01  1.3813333794490742e+02  5.3207218088487629e+01  3.3951450147985344e+02  1.6538819947947626e+01  7.4382036919485266e+00  2.0853532872659017e+01  2.4539397843469524e+02  1.8648211091486200e+01  9.0326265649276127e+00  2.1075770250349194e+02  1.8865195172865714e+02  2.0774968881695119e+02  1.0576260996225173e+02  1.7433285512068827e+02  9.6697827939383160e+01  5.3437268165269556e+00  1.3752114811152919e+02  1.6827113386970940e+01  2.2796513282996497e+02  8.6939838241408083e+01  1.6173494418832340e+02  3.8067107811205103e+00  5.3109246075995111e+00  1.0670971299652338e+01  9.0740760214779232e+00  1.5168548392579945e+02  3.1315181301296764e+01  1.4460926239396770e+02  1.9380269486170872e+02  1.1864229629591659e+02  2.0192462605977553e+01  2.1799618519651852e+02  1.1475305026310845e+02  4.4812380568185910e+00  9.9781354505867014e+01  1.6334345597589126e+02  2.1190330933639046e+01  3.3466802964612974e+01  1.7653993528253746e+01  1.4604395764867488e+02  3.2903085391406393e+02  2.0660315815717081e+02  5.8928633599591180e+01  7.5985655646767398e+01  1.2366170184120474e+01  2.1293899942474436e+01  2.3965657603050239e+01  2.7783305856168695e+01  1.2168923007854678e+01  2.0299729500483181e+01  9.1765768500341295e+01  2.6265614063108143e+02  2.4848996854856452e+01  3.5484416332238055e+01  2.1611810822835178e+01  2.1961531022023834e+01  1.8467552413804339e+02  6.8941277130217077e+02  3.8820941618583436e+02  2.2987208010773864e+02  1.8004661417420689e+01  2.0937410926753806e+01  2.0843683840371572e+00  1.6534444410334405e+01  1.9331070376515235e+01  2.0820978136824412e+01  4.4183323617607961e+01  1.5625053304333921e+01  1.9184066104087009e+01  1.4715975889542068e+02  2.3451575671858171e+02  2.2106461938486341e+01  2.8605031749825876e+01  1.7473099534668756e+02  1.4166235180419296e+01  6.0387482350264997e+02  2.9604652771291222e+02  7.6884389487604679e+01  1.0295351696227160e+01  2.9083329121663709e+01  3.7156256920345627e+00  2.0706716955196594e+01  3.5217188833919915e+00  2.2660987188619981e+01  3.2038345468770288e+01  2.6205122648454751e+01  6.4203154732898069e+00  1.1677252376143872e+02  1.5636488409785352e+02  4.7101030018539198e+01  3.6967556129766052e+01  8.8213485726815051e+01  1.9687547692966601e+02  1.8483059598311996e+01  3.1657516520375932e+01  2.3323806488921696e+02  1.6030673125427077e+02  1.5051020380212524e+01  3.7959049880544143e+01  4.4030691300314324e+01  4.3788213623331131e+02  1.5573924987995917e+02  2.0426241419166354e+02  1.0595702035223442e+02  2.7398138456803579e+01  7.5813976272711052e+00  8.5318025434420086e+00  8.4623117927284952e+01  1.4482559963526793e+02  2.6521878487834108e+01  7.7868114770313497e+01  5.5158132199863594e+01  1.2003352357315027e+01  1.7142660788397173e+01  3.5294085364408097e+01  8.1541614135773717e+00  7.6972071960932351e+02  4.4186166986143682e+01  9.0577073434301685e+00  3.4385039686254726e+02  2.2854218694919243e+02  1.6903596280662839e+02  8.8753581582570611e+00  4.2974785009102874e+00  1.3293083085009359e+01  1.5697548739007431e+01  1.3614754512251235e+02  1.1054027389430187e+01  1.5619217037735961e+01  3.2279738862639967e+01  1.9709098579528131e+02  1.4835663501928173e+02  9.7750355333372259e+00  2.9940503472037534e+02  1.5588139965731800e+01  8.2997884049264897e+01  1.9942306077033737e+02  1.5279762103289681e+02  7.1331359372984920e+01  2.1327983234990936e+02  1.7624066361468593e+02  3.8657895554759656e+00  1.4442993133166817e+02  2.2597397013915554e+01  7.1942373996385783e+01  1.1523467395886186e+01  1.6527015844312540e+01  1.0669897209599771e+01  4.1790131007933397e+01  1.2058263791937962e+01  1.3797006424510371e+01  6.6355259553998252e+01  1.8301933106841818e+02  1.9025138899922425e+02  2.0716573732179970e+01  1.0844997778153576e+01  2.0155395092907522e+01  1.0357325232962208e+02  3.3165529402216475e+02  9.0990338606878485e+00  1.5030410257292299e+01  3.6771708299034962e+01  2.2315426794782013e+01  6.3792857628553236e+01  3.3984472767371678e+01  5.2988239986550113e+01  2.2814897417465852e+02  3.1684267977824438e+00  1.8831773296690821e+02  3.9358237645802319e+02  3.4518116613136108e+01  2.2958087033924033e+02  2.1450708266185249e+01  2.4237911767111036e+01  1.5167886252736626e+01  1.1214212968814758e+01  5.9038753938303525e+00  5.1254340555597970e+00  4.4075551709706687e+01  5.9578637194686426e+00  6.9136687362973376e+01  1.3246747688328961e+02  7.0268029230944492e+01  2.2458794815271787e+02  2.1535071296748393e+02  2.3604867152863147e+02  2.3656537283801438e+02  2.3521448022409385e+02  1.7405341072973748e+01  1.4057108139669657e+02  6.3453332153174898e+01  2.0733801141944559e+02  1.4335236604190802e+01  2.2821212494354331e+01  2.7371209538974863e+01  6.3461871835267075e+01  2.1207929646779803e+01  3.2708898540350833e+02  3.0034387361167825e+02  2.0791222426201617e+01  3.2977809489262107e+01  3.1801613940010679e+02  1.7764920720076614e+02  1.9718459353054254e+02  5.6586087854090215e+00  1.5178874179281257e+01  3.6751679506869808e+00  1.4193056485120646e+01  2.0340816324785908e+02  2.1224419937742002e+02  2.9622946909819080e+02  1.4827046010971534e+02  8.8829400248265387e+01  2.0146609527292945e+01  1.6169079988256431e+02  2.1376179067636505e+02  1.3840786706342010e+02  8.2596080689764676e+01  1.1385062064249455e+02  8.6735287790308661e+01  3.9458634106264391e+01  1.2612665366342270e+01  1.3922158721828746e+03  1.7675667278153892e+01  1.9905711778437367e+03  2.5330823937356573e+01  3.6919441876535807e+01  1.4024760642230724e+01  6.5453355496295407e+00  1.5934995874987061e+02  7.4293684333189063e+01  1.9163284569475411e+02  1.3123043889445333e+02  1.5257668839200697e+01  2.4449529845016164e+02  1.1118021596998265e+01  1.0591224617576138e+02  1.2567658810070926e+01  9.8827517433804335e+00  1.7365520358759281e+02  1.0189243666149908e+02  3.5914712161031213e+02  3.5698232397517753e+00  3.0223593843060303e+01  5.6972817971960907e+01  1.4428815634783763e+02  2.9605854925566229e+02  1.6071517515265498e+02  1.6883972741955625e+02  2.3396801503720084e+02  1.0444520783311366e+03  9.2920796188971320e+00  2.5421400083194689e+02  6.3645072049667412e+01  1.3147698495452173e+02  1.7127437858057260e+02  2.1320586003661404e+01  1.8899494024292927e+01  5.5414342219993486e+01  2.0397282540668888e+02  3.7099871681624442e+01  5.8767907528334177e+01  6.9761448275147435e+00  2.0699841597393135e+01  8.8141208392378175e+01  1.4395782293366889e+02  3.2667259618730490e+01  3.1232360101098195e+01  8.0967840519745504e+00  3.6393254782761517e+01  1.7869105462702635e+02  4.2934329991449168e+01  7.1512343914609264e+00  9.2573344062124465e+02  3.2190059161821225e+01  1.1173350526911438e+01  2.1934734361617508e+01  1.6446976360251082e+02  2.1922795204785253e+01  2.5519446061164390e+00  5.3576901407188569e+00  1.3655232958738068e+01  1.9025888747178601e+02  1.2916405412366560e+01  1.9659383377803334e+00  3.4669909648073940e+01  1.1932164146607272e+01  6.0639467447760493e+00  8.7921814995265670e+00  1.8517459317830539e+01  3.0197595449594199e+00  2.1736227242971456e+01  2.2423043235164933e+01  7.9161268489174432e+00  1.1968946377470141e+02  5.0366959274108831e+00  2.3227768218988625e+00  6.2341467574958642e+00  5.2793610555448067e+00  3.4515851534260925e+01  8.5346692722702031e+01  2.9253986649687267e+01  7.3658809085597397e+01  1.4463185664600443e+01  1.8698899826651246e+01  1.5309720851216991e+01  1.5743069329411689e+01  1.1151531299887429e+01  9.1734370149098563e+00  1.7599096369784597e+01  6.5155019565616286e+01  2.1934429671664812e+01  2.1253891395078501e+01  2.1098803815070397e+01  1.8835029640301926e+01  1.5158371288089374e+01  1.5542248378962876e+01  2.2556940696267262e+01  5.6495074840789439e+00  3.2087631741362253e+02  1.9165581964047895e+01  3.3351562876010408e+00  2.2636088984227012e+01  1.7649818202751396e+02  2.3564084041347007e+02  2.6611073633332995e+02  1.7619281730675951e+02  1.7031589196439347e+02  1.5667181093626395e+01  8.3182241263260380e+01  9.1281929835724878e+00  1.1647198136686292e+01  1.9762356621877530e+02  5.9790012218840495e+01  7.3404211625900828e+01  3.7950301293225688e+00  1.8543332271056869e+01  4.2608802033267187e+02  4.8794836003737936e+02  1.6220254409915235e+01  1.4122269193534561e+02  1.5642166492861381e+02  1.1159463789415126e+02  1.2947125930247373e+02  2.9982237110874685e+01  3.8240995986052870e+00  1.9704753130929788e+01  2.0557181919936799e+01  3.1802951668917115e+02  4.9314120871606214e+01  6.7225904035350696e+00  1.3278806227631335e+02  1.6902737002062150e+02  5.5164039852161029e+00  1.3358847280521226e+02  3.2376157562515814e+01  2.8064287167030983e+01  2.8538703781704111e+01  1.7269869519264108e+02  2.3250060012878613e+01  1.4259438828824589e+00  2.1422271343940054e+00  2.8572105926275664e+00  5.4121835014050376e+01  2.0396786150146259e+01  1.7484533441731128e+02  1.0573947192900572e+01  1.9701657879672979e+02  6.7534801056621518e+01  1.8354199427953844e+02  3.4897594992782763e+00  2.0640193766365257e+01  1.0472798622305238e+01  1.2565053534670133e+02  1.0636273850369928e+02  6.5917094972225996e+01  1.4317845671679294e+02  1.8217244910266780e+02  4.8386253304076119e+00  3.5388131787281776e+02  2.7772869003384733e+02  3.2136193878024272e+01  2.7253604486802008e+01  1.3688253550740188e+02  2.2844076226171683e+01  8.1026034727803918e+01  1.1742652622241204e+02  9.6970755867053981e+01  2.0967617237302655e+01  1.4876919637258527e+02  8.0407757381366487e+00  2.1067634652329625e+02  1.8587236148598870e+02  1.7923832614954289e+01  1.5992795517126723e+02  3.2851490570034525e+02  3.1853907946741852e+01  5.0401034335169260e+02  4.5177486903593746e+02  2.9398651391134786e+02  2.7491516453284518e+01  7.8207638825584382e+00  1.3794329743371565e+01  7.8023745554540342e+00  1.1986592167947387e+01  7.0020222223833656e+01  1.2280559843613182e+02  1.9020502167450729e+01  5.7622629265746298e+01  1.7092196193332254e+02  4.5647252371929440e+01  7.0393796902175012e+01  3.4517637926567076e+01  8.9763552689948381e+02  1.8780632574888021e+01  5.2633123597769655e+00  4.7812443289423399e+01  2.0907672008162356e+02  1.3854435186813085e+01  1.8459674513896168e+01  4.5353085107417375e+00  7.5487885655149745e+00  2.0523201377109046e+01  1.0057011315268135e+03  2.2382687034421799e+01  3.2290902389573455e+02  2.1376075558920782e+01  2.7514146727261050e+01  2.1150775735926692e+02  2.1366817448483295e+02  1.9530072529509422e+01  4.1362004542467465e+00  6.9400472901926435e+01  3.1799963787526684e+02  2.8576803270384011e+02  2.0163662398162620e+02  1.1273834149722179e+01  2.1218458304444246e+02  4.6032472676935768e+01  5.7134211983551197e+01  3.6974417917805525e+01  3.7578390079248556e+00  1.0400791055516228e+02  2.5470097156691835e+01  1.3199057045067372e+01  4.2453115448304935e+01  5.8112828142113102e+01  3.5401451763665499e+01  7.8435427880941361e+01  1.6793821797751721e+02  1.0458751349812854e+02  1.1360685804962903e+02  1.1162320940675007e+01  2.0204456072599431e+01  4.1383054070618908e+00  4.2310828204011699e+00  2.2508287090680220e+01  2.1664113554924192e+01  2.0901183781925464e+01  2.2033361543761135e+01  1.8293332019223737e+02  2.5877414890021281e+01  2.2442240513677749e+01  3.1672563659613040e+01  1.7547002396388100e+02  2.8579240237775444e+01  1.6798335960331613e+02  1.5377205826432476e+02  1.4418428101093485e+02  2.1191339929519124e+01  1.0260221391047091e+01  1.0663467528230464e+02  1.1618996985561282e+01  1.1900357954106436e+01  1.9670611787923312e+02  4.8122420552580849e+02  1.3264896391139946e+03  2.2070698207851883e+01  2.2796277271957543e+01  2.3589988140730810e+01  2.4230649069255666e+01  2.2849384333376896e+01  2.1549087746016578e+01  2.4844075119465106e+01  2.5409552238989357e+00  2.2609845345626929e+00  2.4182907506062858e+01  7.5960777877049708e+01  3.1254902234036383e+01  5.3387976987079092e+01  1.3265292435995407e+01  3.5350268513032681e+01  4.8560803335527972e+01  6.4543774551348591e+01  9.0555627222764471e+01  5.7139456513170778e+01  6.4457645380186648e+00  1.5344301307568335e+02  2.0258707229727470e+01  2.5778421431651708e+02  1.3729830812963067e+01  3.8068287030785255e+00  6.1719623133924024e+01  1.4948788622951039e+01  </DataArray> 
</PointData> 
</Piece>
</UnstructuredGrid>
</VTKFile>