<?xml version="1.0"?>
<VTKFile type="UnstructuredGrid"  version="0.1"  >
<UnstructuredGrid>
<Piece  NumberOfPoints="758" NumberOfCells="1386">
<Points>
<DataArray  type="Float64"  NumberOfComponents="3"  format="ascii">-1.570796326794897 3.048 0  -1.570796326794897 0 0  1.570796326794897 0 0  1.570796326794897 3.048 0  0 0 0  0 3.048 0  -1.570796326794897 1.524 0  1.570796326794897 1.524 0  -0.04609926118424437 1.524 0  0.7853981633974483 0 0  0.7623485328053261 2.262242601661362 0  -0.7853981633974483 0 0  -0.7853981633974483 3.048 0  0.392699081698724 0.7745759241961347 0  -1.570796326794897 0.762 0  -0.8084477939895706 2.0955 0  -0.68277245543452 0.8915343570675713 0  0.7853981633974483 3.048 0  0.778743707341909 1.468410948960538 0  2.780093748954961e-16 2.285302774973185 0  -1.570796326794897 2.286 0  1.570796326794897 0.762 0  1.570796326794897 2.286 0  -0.9375370967763674 1.47348297960658 0  0.9831575747762593 0.9003629142671278 0  -0.3926990816987241 0.4064697549061488 0  1.177419588818055 1.905 0  0.3692901340097942 1.880893989147954 0  -0.4920225169641509 2.564371687128368 0  0.3926990816987241 3.048 0  1.178097245096172 0 0  1.155705348811136 2.643920532523289 0  -1.178097245096172 3.048 0  -1.178097245096172 0 0  -0.1391296372266528 0.8873724190154949 0  -1.10527745318919 2.528282743051346 0  -0.9817477042468103 0.4742759268549471 0  -0.3416666987802651 1.923944646262223 0  -1.570796326794897 1.905 0  -1.156555306160469 1.030861936336814 0  0.7648449098493205 0.4764142032227 0  0.3926990816987241 0 0  -0.4820376416180818 1.326151321396512 0  0.06374421723344185 0.4545169930886408 0  0.1972735722393064 1.163324878565267 0  0.3900417218314142 2.566922767651637 0  1.570796326794897 0.381 0  1.188877612935585 1.295195418509834 0  1.179914028402171 0.5308585702661928 0  0.7660075594126428 1.865233039449035 0  0.6330293131838399 1.095171663968746 0  -1.201232463242587 2.144287146570887 0  -0.3926990816987241 0 0  -0.3926990816987241 3.048 0  1.178097245096172 3.048 0  0.7684409382397209 2.649499271873753 0  -1.236954997304436 1.7145 0  -0.1088573452899617 2.666651387486592 0  -1.570796326794897 1.143 0  -1.570796326794897 0.381 0  1.570796326794897 1.143 0  1.570796326794897 1.905 0  1.570796326794897 2.667 0  -1.570796326794897 2.667 0  -0.6730839067294777 1.743003792473746 0  1.199831389396789 2.275437921225198 0  0.3936837537618041 1.495643752599615 0  0.01539369169800942 1.928544709491661 0  0.4156551272669651 0.4219033286010089 0  0.3401546043708642 2.225103550856524 0  -0.3379897306391274 2.262671266279809 0  -1.23624174049596 0.7000907110925838 0  -1.265224057170889 1.360131453617764 0  -0.1224339018241312 1.210043725539656 0  1.289286200625578 0.9918698881707442 0  -0.7751142346211329 1.197848666814478 0  1.003546186550495 0.2660297686099683 0  0.1963495408493621 2.808538634159524 0  -0.8079023568959116 2.703551618159924 0  -0.3480226984353056 1.610059855391589 0  1.075147893506229 1.598068412087719 0  -0.8290627893979112 2.399544545867518 0  0.6965048925255637 0.7972100472372819 0  -1.257765094876752 0.3107645483825858 0  -0.6724835324263325 0.5684215760013651 0  -0.3995059642389676 0.7173610149075536 0  0.9136951972244611 1.187564504803626 0  -0.964259350608907 0.8095514380783081 0  -0.7565990314517038 0.2897049735129544 0  -0.9603859887840651 1.834914433810327 0  -0.1457055965762301 0.2521630699436873 0  0.1963495408493621 0.2041911848053476 0  0.6241974196550791 0.231695999252114 0  -0.4098815011312292 1.029160072548571 0  0.9592800715482012 2.452820690856482 0  0.9648684169153161 2.840751931000357 0  0.5890486225480862 3.048 0  0.164631037784102 1.698913854044779 0  0.5664480837073581 2.070920238540226 0  1.374107957806476 1.7145 0  0.9861079629544779 2.102471438422718 0  -1.374446785945534 3.048 0  -1.288827800789186 2.762781313597598 0  1.353232957571468 2.835634774483438 0  1.302158670506274 0.2650078124691045 0  0.1394669809465775 0.8907702620243092 0  -0.5631487221059602 2.830992231257464 0  1.372837635547072 2.483038902756259 0  -0.1493395228831287 0.618617259260858 0  -1.32327048447753 2.378769394323546 0  0.56080204725298 1.699622905297025 0  1.570796326794897 2.0955 0  0.5403456747786348 2.786446773498672 0  -0.9817477042468103 0 0  -0.5847039960246873 2.326882432521036 0  0.1225428891326576 2.526494255738436 0  -0.9817477042468103 3.048 0  -0.5522901559753841 2.071668786267058 0  -1.370864794258017 0.9075071715671403 0  -1.043891045637083 1.250611220450313 0  -0.1652643923634778 2.09141301924679 0  -1.044446740946883 2.764982067459552 0  -0.1610370079820225 1.763280243096074 0  -0.3136912237752232 2.810498886211121 0  0.5400974078002052 2.370472734822523 0  -0.7009161718414544 1.427243880175582 0  0.902907438200502 0.6735032943420574 0  -0.9879196222361604 0.2371379634274736 0  1.319268546233604 0.7412771512308228 0  0.5578373583610097 0.608241627784878 0  0.5756483102040615 1.332636919938113 0  -0.5281701577409 0.2032348774530744 0  -0.266729509930448 2.489223923247521 0  -1.570796326794897 0.5715 0  -0.2430656531629531 1.405631921096758 0  0.253622337931223 0.5884397663452474 0  1.284044721043478 1.50372037617638 0  1.570796326794897 1.3335 0  -0.9904333867980613 2.235882060371517 0  0.9871146764618406 1.395690276854986 0  -1.374446785945534 0 0  0.3981951765262902 1.020833864419675 0  0.1670583512016766 1.405384478716078 0  -1.330327693484763 1.938638984813805 0  0.2106653067452682 2.040805097078886 0  1.570796326794897 0.5715 0  1.334822181490566 2.081373939821734 0  -0.9303227889097604 1.033236710715967 0  -1.34639228476592 1.150776798768373 0  -1.570796326794897 0.1905 0  1.106697207481837 1.099709897393925 0  0.4137866939027022 0.2104288000383385 0  -1.570796326794897 2.0955 0  0.9761377489246634 0.4754251272674608 0  1.377108465632662 0.4605024587280874 0  1.108114944719677 0.7297638044096917 0  0.3695908229138113 1.285681859811955 0  0.9799112840676307 1.800306505551499 0  -0.001696842075803034 1.042028929293442 0  1.366537356420357 1.185723700290463 0  -1.385029840108318 0.47625 0  0.05842649915411911 0.6874537157920781 0  -1.183268988745763 0.4997334438341218 0  -0.6073502281622543 1.081347079085406 0  -1.026941765261019 2.031536576622642 0  -1.570796326794897 2.8575 0  0.8159726599830506 1.011928543199529 0  0.7652782693277244 2.849245002237192 0  -0.5252326280373281 1.520125074885265 0  0.7648326174724897 2.063743853392348 0  0.757099741434616 1.666331708950521 0  -0.1963495408493621 3.048 0  -0.005410422648647092 2.843333256403111 0  -1.395368347654653 2.19075 0  1.374446785945534 0 0  0.9817477042468103 3.048 0  0.1963495408493621 0 0  -0.1963495408493621 0 0  0.5890486225480862 0 0  0.1963495408493621 3.048 0  0.9817477042468103 0 0  1.374446785945534 3.048 0  -0.5890486225480862 3.048 0  -0.5890486225480862 0 0  -0.06865319188571758 2.471928549109083 0  1.159049337209348 2.838090892449816 0  0.5817075150535711 2.596909954318943 0  0.7656515661107315 2.455866896253367 0  0.9620790410056582 2.647119292933887 0  0.3676829480103987 1.68739481709134 0  -0.8886101495223063 2.878912500124773 0  -0.3317793704126089 0.1873756770788371 0  -1.383208664444332 2.577695923010364 0  -1.043597917648523 1.648216005744782 0  -1.362178343413552 1.546177620526679 0  -1.570796326794897 1.7145 0  -0.8462722504471433 1.648434957877788 0  -0.588076822054871 0.3899352838051667 0  1.570796326794897 2.8575 0  -1.570796326794897 0.9525 0  1.570796326794897 0.1905 0  1.570796326794897 1.7145 0  1.570796326794897 0.9525 0  -1.570796326794897 1.3335 0  1.570796326794897 2.4765 0  -1.570796326794897 2.4765 0  0.8103777117362174 0.287468585434799 0  -1.145334531235929 1.881885620422454 0  -0.8620560674467429 0.6361265362229395 0  -0.321688879263093 1.207848147265888 0  -0.7798551871678058 1.904240998338365 0  -0.4724954359209014 1.769587110195458 0  -0.667402576232105 2.495985359319255 0  0.5365063314111709 0.8945566719544227 0  0.1855702280441107 2.342745654422604 0  0.55510120733165 1.88540118775351 0  1.188295809121239 2.460939894898248 0  1.38587897409014 2.260870763688798 0  1.383978812419919 1.901097375082534 0  -0.2265735189171196 1.049795314962436 0  0.7387890113368257 1.246392780742437 0  0.5763234466275948 1.516457524623135 0  -0.203279258075353 0.4348372558382012 0  -1.179202350299698 1.523245956950107 0  -1.151844216720993 2.318990544544152 0  -1.410806081599612 0.6547540757597369 0  0.04190096621848406 2.108399609871347 0  0.5925649981629265 0.4343292987553075 0  0.2371113691258682 0.4102816185532077 0  1.334103818253725 2.657728219912091 0  0.9405077369493808 2.275181409651143 0  -0.633962040105568 2.669303984283053 0  -0.6045614816381242 1.904349918307267 0  1.159697673803787 2.079238591118184 0  -0.004643801590645341 1.347662554528907 0  0.3691400131247499 2.395423267764724 0  0.3855005143298051 2.055603978165229 0  0.01839821075864462 0.1788084577298442 0  -0.9568120219060965 2.61629404172056 0  0.1783135820912846 1.871116340262054 0  0.3649950158263953 2.745288921627024 0  -0.3142054567155264 0.5671999812317062 0  -0.4933549623779417 0.564740705097546 0  0.06092775470575962 2.685867440722903 0  -0.1801827362748675 2.337517890002858 0  -1.063355415037434 0.6386189748554 0  -1.205242865599393 0.8676070232612285 0  -0.4176020549597784 2.412196127179313 0  -0.3347051678178828 2.093252344225509 0  -1.427772711006951 0.2857500000000001 0  0.8835729338221293 0.1362887052191026 0  -0.6831011505337878 0.1389086130988801 0  -1.403875662049666 1.77648180985222 0  1.394165436236593 1.362588987767805 0  -0.5007942298153729 0.8700626692351643 0  -0.6093220848169366 0.7321530406295067 0  0.007534593095922887 1.760126887057542 0  -1.276272015520854 0.140425968067263 0  -0.7270478511000733 2.847016806985676 0  1.436331331726002 0.85725 0  -0.1770320080670663 1.927167796173981 0  0.7200726153501196 0.6345534912379586 0  -1.099983122078282 0.3577316115390257 0  0.2324759135153202 2.648405702327079 0  0.9054371869972004 1.582409569434113 0  0.5000672234640285 1.188708149930449 0  -0.340793734207542
[...]
<PointData  Scalars="Elastic Energy"> 
<DataArray  type="Float64"  Name="Elastic Energy"  format="ascii">1.1460408799260028e+03  2.3684373124837446e+01  2.3811461480684603e+01  1.1040606730232303e+03  7.7574403111443260e+01  3.1558869858558783e+03  2.1836245269110179e+01  2.2145300344487101e+01  2.9972414868515341e+02  5.2955433469209989e+00  5.2690093593156575e+01  5.2982648271385262e+00  1.5201453317633883e+01  6.5375651140231582e+01  2.4830917113763288e+01  1.0929626891382092e+02  4.4723030559282904e+01  1.4287155613060211e+01  1.7647496004450562e+02  3.2970928752079385e+02  2.0129574491216484e+01  2.5196102428342236e+01  1.8273447769240615e+01  1.0076980737250950e+02  2.4292904192886500e+00  3.0470376644607001e+01  8.4606603484082683e+01  5.5489665987769463e+01  3.3332626024722217e+01  8.0726977127500248e+01  1.8547581501897710e+01  2.0601760035396788e+02  1.0746953199670580e+02  1.8422885889100350e+01  1.4348792160537636e+02  2.0177749998279461e+02  4.2970277442714675e+00  8.1527872331537225e+01  5.0202765538853740e+00  5.4058924642696748e+00  7.6406401720395074e+00  2.2954096404591343e+01  1.6427141759195737e+02  1.7539522939517045e+01  1.1783609497760223e+02  7.4878290642940797e+01  2.4396487611295310e+01  5.7387861153402930e+00  1.2211565377387888e+01  1.3794179075850460e+02  1.4042976263826753e+02  1.2127436899952717e+02  2.1806622173690936e+01  7.3418477509808483e+01  1.0221677108266096e+02  5.1671254691358861e+00  2.7677546149225890e+01  3.5059970725101954e+02  2.6073317337545134e+01  2.4243292308639028e+01  2.5656930507225098e+01  5.3690771893818736e+00  2.1788320943831027e+02  2.2911036087285078e+02  1.1581340524900344e+02  1.6611850677578141e+02  3.4901123810946217e+01  3.1405324889315830e+02  3.0792627536930063e+01  1.0620010247548782e+02  1.1173204451071459e+02  1.3571690594817840e+01  8.1316642682228490e+00  2.1454529364578354e+02  1.4258407829392111e+01  1.0187390820806188e+02  8.0366093321337875e+00  2.0512700379492733e+02  6.9152628514473609e+00  4.2782106533588966e+01  6.3530405767765309e+01  5.2713398605431479e+01  2.6514988305050533e+01  1.8364610855940821e+01  1.6180146390059726e+01  5.1637944460282256e+01  3.8646968607563402e+01  1.9450243693048150e+00  6.6389125136240033e+00  1.6302630872066558e+02  3.4944285489993682e+01  3.7691017435686774e+01  1.2865266156644216e+01  1.9468449605831142e+02  1.0993655503234265e+02  2.2569000803685146e+01  3.0531240136448464e+01  2.3056284688496763e+02  6.4470451105815361e+00  1.2031959866510224e+01  1.8819346004895394e+02  3.7170007005986707e+02  2.6339388156410126e+02  3.3334039544680536e+02  2.0152006780070213e+01  1.7418613987996852e+02  2.4479679909982245e+01  1.3813528970969733e+02  1.8631241625000005e+01  1.2865589190581136e+02  5.6505142073665056e+01  5.1565503605047196e+00  2.4288183200250355e+01  1.2094469813767734e+01  5.5773422005954512e+00  3.0120692518727282e+02  2.8240778830770601e+01  9.3573660249520572e+00  1.9689987580916956e+01  1.3319303551201639e+01  2.5068620875905265e+02  7.4605769449528466e+01  2.4036255060350538e+02  1.1063822974894633e+02  1.4921428809471884e+01  1.9953196410228597e+02  3.1543609548103104e+00  7.7584849795975686e+00  1.7868947260576284e+01  2.9387088666187285e+01  1.9514383255984390e+02  1.8772734210630873e+01  1.6701900431623758e+02  2.4245568035014525e+01  1.0240077869519490e+02  2.9162897284676351e+01  1.0619995740901258e+01  2.6158325155121119e+01  1.6856090592254583e+02  5.5718588499968234e+01  2.1991055109676783e+01  2.0673438863125199e+02  1.9414155331832563e+02  2.3319106538286984e+01  2.1493934073028663e+02  2.4697294169066865e+01  4.0605986427145893e+01  1.0938643265734006e+01  1.6941206727459846e+01  2.3103875551745286e+01  3.0407564136579928e+00  2.7792223108956794e+01  3.9893449728525234e+00  4.2174088188390630e+00  2.1514983655731481e+01  5.8588928734384185e+00  9.3732620764960686e+01  1.6340872425914966e+02  1.9934105695001711e+02  1.8135735743645725e+01  2.1653522737426574e+01  1.9029979785646372e+01  1.2774444584039857e+01  1.4584525909232775e+02  1.6950429110460007e+02  7.3162106062044472e+02  3.2721825953193871e+01  4.0286420363937090e+00  8.7624140044190852e+01  1.0169090754032491e+02  1.9852248267232000e+02  3.4954628177310906e+02  5.1764736018624023e+02  3.6414004938972674e+01  2.2184069311205427e+01  2.8955223284357732e+01  5.7045781028096698e+01  5.7834958319569566e+01  6.2558106975061012e+00  2.6493670626583815e+02  1.2299991109411183e+01  3.5331807095727373e+02  3.0201423224402607e+01  5.8426977405777318e+00  3.3201775476369357e+02  1.2945853894032038e+02  1.2130464366953506e+01  1.9638195912912192e+01  5.9624370558459653e+01  3.8145685108367026e+01  5.7416272344587584e+00  3.2242501965543120e+01  1.6733467145429123e+02  9.0230325612848546e+01  1.3613625637451863e+01  1.3574056521914565e+01  1.8300396100802806e+02  1.9385162501920387e+01  5.9016741764621213e+02  2.5178030341723726e+01  2.3072203005408962e+01  1.3480382873375046e+01  2.5755888107809373e+01  2.6451894364277909e+01  7.4805131255602092e+01  7.1876121938089597e+01  5.1206602683944835e+00  8.9075501082617279e+01  4.1424680874725412e+00  1.0120207523594954e+02  1.3947920537120694e+02  1.2995632826499792e+01  3.9170297900566391e+00  8.8795367911677218e+01  2.4657426697872901e+02  2.2873029765652266e+01  2.0059165139307032e+02  5.8956900806751555e+01  1.2145936475205025e+01  1.7818784263339080e+02  1.3434051789581443e+02  1.2614537743820433e+02  2.4860379333098614e+01  1.7837210815946541e+01  2.0212426200957736e+02  2.2157002935740191e+01  3.2589634034843499e+02  2.0311847795587180e+01  2.8031452743774928e+01  2.5393568896344493e+02  1.4710582150587649e+02  5.8317900519394188e+00  4.1271749283657932e+01  1.3848999319232939e+02  3.2218871180543573e+02  9.1347773122347789e+01  6.2062701807883222e+01  3.9824869482880281e+01  7.3999520346169021e+01  2.2527063592812763e+02  7.6927209257884243e+01  3.2083030845351047e+01  3.1597150988010238e+01  4.1102244105985898e+02  2.5072227268480466e+02  4.9151767303530383e+00  9.7675033518093635e+00  6.2897715129965320e+01  1.0607425226269844e+02  2.2893577708342985e+01  5.8003116528192926e+00  6.6954507266403551e+00  1.0474390412910211e+01  1.8498493505838418e+01  7.9405497702605174e+01  3.3584869912176970e+01  3.2432916211308816e+02  1.8691740368897051e+01  4.7016642345545359e+00  2.2808707281173934e+01  2.3030035359317344e+02  1.4670278256716667e+01  1.0784013592824824e+01  2.0344307531009810e+02  1.6255583099879939e+02  2.3191472121532249e+02  1.0255672506345806e+02  1.8169443185855204e+02  7.4065437253354247e+01  5.3103339205046796e+00  4.5896490119222264e+01  2.5397386663971012e+01  2.0693634293540669e+02  5.2657801412323543e+01  1.2297822268124943e+02  4.8813514712747335e+00  5.4656259620276533e+00  1.2406475322323034e+01  1.0815042347502137e+01  1.7597013101320147e+02  1.8300372011071580e+01  1.5640789268763061e+02  1.7378934815359594e+02  1.3536065708624272e+02  1.4528895840232707e+01  1.1306082470886309e+02  4.8796988292736373e+01  4.9757726428683755e+00  8.4753458758093288e+01  1.7065722179324274e+02  2.2710617169515245e+01  4.4473441219263108e+01  2.0642939676849721e+01  1.2607888170780703e+02  2.8967783833536907e+02  2.2710660178260352e+02  3.8838796543335484e+01  9.1270702274178944e+01  1.8909012271930695e+01  1.1777737635250116e+01  3.1026052965972209e+01  1.5632869985113041e+01  1.4127219031261237e+01  2.2460055646274864e+01  5.6384297169476497e+01  2.4993710618928071e+02  2.0452162902971775e+01  3.4722734699462450e+01  2.3135955493714874e+01  1.2762182383292274e+01  1.8768716767127816e+02  5.4618262737104999e+02  2.9514338936200875e+02  2.1749498129209996e+02  9.0187011212350452e+00  1.0744504146586451e+01  2.4223759713572366e+00  1.8669178206774689e+01  2.1558176718308260e+01  2.3185576361383575e+01  4.2725182252285570e+01  2.2879678833157602e+01  2.1407938079458020e+01  1.0676842922821082e+02  1.4122890229574779e+02  2.3792493943268280e+01  1.9707248198625262e+01  1.5894793833387661e+02  1.7894407360396620e+01  5.3736468403354036e+02  2.7836911593896525e+02  4.7478271947421071e+01  7.2667556499678323e+00  2.3891705203802296e+01  4.9077688134653767e+00  1.7861744831970114e+01  4.2763790617946702e+00  2.8530442379304905e+01  3.4249456296824739e+01  2.4161017802441329e+01  5.8476017302306600e+00  2.1304009063906608e+02  3.6526722185477858e+01  6.1677530511828977e+01  4.3665735913170671e+01  5.5859637436679741e+01  1.8848031822572858e+02  2.7848016068406338e+01  3.2287405402884588e+01  1.8573308509083489e+02  1.6792387417767580e+02  1.7126143033877923e+01  3.6705833351544229e+01  5.8390832159712254e+01  3.2738257323103505e+02  1.6934974440110418e+02  1.9502400662657215e+02  1.2120723609310242e+02  3.7134528801484500e+01  6.5999910364937548e+00  1.3430154179471327e+01  1.0314479909116304e+02  1.5677549456836712e+02  3.6660906710138050e+01  1.5979302824655616e+02  3.1918356602041737e+01  1.1550040831798837e+01  2.5179846003521185e+01  2.5624243895567375e+01  9.6328605567767358e+00  6.0389409597533438e+02  6.6155158980040426e+01  1.0515150673682511e+01  3.2882433114044039e+02  1.6361111822503057e+02  1.3599091992865377e+02  6.0354174754496208e+00  5.5309684425580325e+00  1.3982131616787971e+01  1.7639687394882440e+01  1.1341054725808652e+02  1.5785034300832889e+01  1.4685031538481649e+01  3.1948133794221334e+01  1.9140769906367299e+02  1.0224313458474549e+02  7.3187532262318795e+00  2.8110162491154568e+02  2.3187956061839344e+01  8.4678935109792988e+01  1.8429967662798691e+02  1.2253286327516538e+02  4.5218070183100174e+01  1.9630012975574536e+02  1.8513311682112291e+02  8.5010665629193198e+00  1.2715567888116520e+02  3.4970112463285666e+01  9.3113508202293247e+01  1.1038946398337833e+01  1.3249005330498250e+01  9.9927776919791604e+00  3.8814448510725917e+01  1.4025574988476466e+01  1.5636285382128857e+01  4.8133775496326074e+01  1.7617971266124303e+02  1.8930405072785496e+02  2.2763322533532943e+01  1.5455531469033085e+01  1.6455239126982736e+01  8.0506479579320057e+01  3.1834846273949643e+02  1.0643811522739462e+01  1.6887606988423748e+01  4.3054333820857416e+01  2.4261898151762257e+01  7.9420529718944650e+01  4.7370352103567690e+01  6.6463722911772962e+01  2.2923867308951492e+02  3.7139286939142373e+00  1.8448456419126668e+02  3.7413810462407537e+02  3.8424766237265182e+01  2.1200864346111118e+02  9.4839562963428072e+00  1.3855552489306522e+01  1.6853197597781381e+01  1.2772673781685629e+01  9.6158389810378626e+00  4.5919885195843353e+00  3.9028316508149473e+01  2.5610983597563339e+00  4.3653283972486207e+01  8.5149189199841416e+01  4.7903521637427552e+01  2.1240426747038907e+02  1.6460497208550959e+02  2.0533598356187761e+02  2.1864062210129967e+02  2.1003522846979348e+02  2.5721574317083142e+01  1.5381241929440063e+02  1.0168588890279338e+02  1.9121602082031151e+02  1.3295238154078479e+01  2.2555954227409728e+01  2.5543845623227142e+01  4.8339758276318882e+01  1.8461529044245509e+01  3.1414944880823026e+02  2.8388419721767980e+02  2.2905273370677396e+01  2.4503843794178710e+01  3.0342768569993626e+02  2.0101783774405331e+02  1.6841627861985771e+02  5.2733563272515571e+00  1.0749100760087085e+01  2.8715691160555861e+00  1.1422291292024831e+01  1.0602219465537247e+02  2.2048508446600010e+02  2.8344018615567472e+02  1.3982339174874471e+02  8.3970249992701838e+01  1.7096986117580123e+01  1.4281242927734345e+02  1.3548856603039852e+02  1.1205065018636230e+02  6.3284448045135996e+01  1.4098869092947336e+02  7.8278596602074671e+01  3.1542226671550726e+01  1.1999452604689193e+01  9.9648582919931926e+02  1.1391243892588875e+01  1.6660355084249329e+03  2.1392561383441514e+01  3.0553556350625939e+01  1.6007302687476354e+01  7.4061177403956053e+00  1.7144098714219058e+02  4.4380924879682802e+01  1.7868684913839905e+02  1.4241996145407316e+02  1.6888579068581045e+01  2.2321908970817978e+02  1.0404796615247292e+01  9.0452348910968666e+01  1.2917100901189464e+01  9.3362006224157099e+00  1.5943403812061257e+02  1.1567561876173363e+02  3.3938956462955184e+02  4.2219781734336683e+00  1.6455069051101148e+01  5.6461596834109343e+01  1.2208831461456039e+02  2.8212583313286302e+02  1.4523389848582102e+02  1.5635296914272695e+02  1.8826199140447795e+02  9.1131657350265777e+02  1.0838683535343154e+01  2.1885307585861321e+02  6.1531612399509477e+01  1.1144008271135138e+02  1.7352854476807929e+02  2.3599684071483075e+01  1.3728213327661386e+01  3.8953000778115268e+01  5.6611343172738195e+01  2.4314178588253178e+01  5.1307741957123440e+01  6.7068249014215109e+00  2.4970484802037305e+01  6.0946823373903712e+01  1.1404249135112404e+02  1.1098072688754860e+01  1.8304561568264507e+01  4.6157988663047229e+00  2.9247623686563866e+01  1.6080179591089623e+02  2.9092174436797198e+01  9.4504636184841857e+00  7.3799725225597854e+02  3.3555370070807385e+01  1.2584949755805775e+01  2.9860407338489189e+01  1.4800436083623978e+02  1.9364267400514468e+01  3.3733699171342804e+00  3.2366642719729906e+00  1.0765413395805213e+01  1.2473406299010253e+02  1.4833640050648800e+01  2.5643599340749961e+00  2.8916170785893147e+01  1.1006550551056634e+01  4.7822504974679489e+00  5.8304562011740488e+00  9.3286572314841241e+00  3.5406739164939065e+00  2.3710960818559045e+01  2.2252586702885768e+01  9.3755951576397027e+00  1.7934960551408184e+02  6.3726603571315570e+00  2.8759378843098391e+00  7.6766810140708976e+00  6.5918668662713493e+00  3.7803860679893035e+01  5.2112079452846018e+01  3.1765775595197059e+01  4.5056002000754241e+01  1.1852891815268006e+01  2.0994961527467872e+01  1.6932644562946599e+01  1.9870896462421378e+01  1.1898581706742240e+01  6.8643237403824156e+00  1.6241822978952101e+01  4.0265392201693373e+01  2.4272163353286611e+01  2.3583704523338639e+01  2.3369462665184162e+01  2.1116231201358257e+01  1.7233679128761572e+01  1.7107985307057920e+01  2.3874733782053017e+01  6.9036492034680750e+00  3.0392206820795815e+02  2.0834203500956800e+01  5.1132451443893494e+00  2.4938529520525666e+01  1.9124012693766463e+02  1.6887745996594407e+02  2.2912182985697660e+02  1.6713076442109630e+02  1.5447798669847350e+02  1.7666596695744673e+01  6.6101527202049425e+01  1.0669403579676084e+01  7.6057843319365022e+00  2.2237262455885775e+02  6.1001071894678425e+01  4.1428710077443498e+01  2.5492106373713859e+00  2.0805741206531607e+01  4.0275563331276743e+02  4.5637647396464831e+02  1.7787048748451916e+01  1.0998924967712624e+02  1.0646491650690348e+02  6.9970319005971078e+01  1.2553713543194488e+02  2.7106345949767707e+01  8.7893862231637883e+00  2.1898164366711605e+01  2.2947442230700421e+01  3.0300476120656123e+02  3.5152520002573894e+01  7.7691542804209561e+00  1.1494289302511417e+02  1.1033461294579506e+02  6.9053666344306315e+00  1.4480433902998675e+02  4.6426304291881891e+01  2.1917762799533648e+01  2.7852108520395713e+01  1.7210057492890076e+02  1.4402227326487827e+01  1.9389061062472415e+00  2.9010263957616673e+00  3.3600414923047266e+00  3.2038310969362058e+01  1.1534526845263494e+01  1.7418174501717505e+02  8.0131933675772640e+00  1.9005873139501543e+02  4.1800990285088822e+01  1.7729551312133032e+02  3.2012847647962395e+00  8.1103629984218344e+00  1.1996911057917453e+01  2.0267466498732122e+02  1.1446434655033586e+02  1.3027997678688956e+02  1.6044386732772006e+02  1.8741547507196228e+02  4.9078380077216908e+00  3.3876033828476693e+02  2.6590681655862409e+02  2.7600387780070299e+01  2.2736446782417673e+01  1.6626801769384949e+02  2.9574103086171895e+01  1.2026889705869405e+02  1.2790905536727226e+02  1.1408096017883655e+02  2.5141603166661397e+01  1.0101775035795355e+02  7.0059766351337371e+00  1.0150082284525233e+02  2.2001042288443460e+02  1.6491387178821530e+01  1.7357003041038803e+02  3.1514934820141548e+02  3.4744503895854713e+01  3.5274454851363743e+02  3.4740493363875549e+02  2.8149555582098390e+02  2.2296093011285212e+01  9.1369367899499458e+00  1.5806361293302590e+01  8.6036529214752147e+00  1.1488808555431703e+01  7.7773932054037360e+01  1.2114828547441989e+02  1.7653671585452987e+01  5.8120544926733864e+01  1.6929276137574746e+02  4.4365995365546965e+01  7.8162858812407350e+01  3.7918705977729381e+01  7.6997125543869674e+02  2.1084408078850455e+01  4.7009979324110844e+00  4.6592096784210312e+01  1.9243136618776367e+02  1.5686115895215508e+01  2.0739156424820855e+01  3.9821041264621155e+00  8.3412138283379882e+00  2.2917608510418631e+01  7.8633078037625398e+02  1.9494858853385896e+01  3.0620832652570101e+02  2.3705448980376911e+01  4.8980162830905918e+01  1.9706332234976804e+02  1.3156008423626034e+02  2.1720638030307995e+01  5.0194921333714317e+00  8.4314055459284276e+01  3.0474903418195009e+02  2.7323119205481157e+02  1.9055492328302131e+02  1.3429065423296793e+01  2.1542966144921823e+02  6.0492924198526730e+01  7.1135945403915883e+01  3.3291348379359036e+01  5.1035293845809262e+00  1.1856221599710969e+02  3.6294443101430474e+01  2.0363640421610125e+01  5.4448519527862430e+01  4.7816236258323947e+01  2.6940410205424367e+01  6.0531707836795057e+01  1.7276920778609997e+02  1.2510850424549477e+02  1.2940827714425060e+02  1.1588592785594322e+01  2.8820165537168094e+01  6.3755727772536801e+00  4.7531049243828249e+00  2.4823500833314640e+01  2.4062740508036324e+01  2.3265859228383206e+01  2.0891849670898228e+01  5.7394572673579177e+01  2.9226065618322917e+01  1.9301406291502083e+01  2.9427127828306581e+01  2.1130830824220513e+02  2.9923458942032251e+01  1.5908820076637932e+02  1.3533697753297903e+02  1.2399229041053304e+02  2.2581590849525625e+01  1.5685588732834454e+01  6.6867710059499871e+01  1.7086071323974494e+01  1.7245633493457550e+01  1.2823564465201326e+02  3.3935516151705110e+02  9.5314827004960830e+02  2.4402408192446060e+01  2.4910923348286957e+01  2.5123397916034026e+01  2.5654884859372409e+01  2.4973475495308598e+01  2.3950228314287248e+01  2.6396955900927782e+01  2.0805820216846085e+00  1.6891118872539423e+00  2.5823893805935235e+01  4.3517581140586479e+01  4.2775165496402309e+01  6.6657450022148126e+01  1.5298630986560275e+01  4.7127385780020809e+01  3.5892868569245508e+01  4.8728497679901658e+01  6.9257242925546279e+01  4.8371148090172653e+01  7.3261521757649790e+00  1.4955827427756952e+02  2.3582863221841443e+01  2.6089610343845203e+02  1.0892988784123551e+01  4.0835435216785925e+00  3.3158050189906326e+01  1.2174005419656742e+01  </DataArray> 
</PointData> 
</Piece>
</UnstructuredGrid>
</VTKFile>