<?xml version="1.0"?>
<VTKFile type="UnstructuredGrid"  version="0.1"  >
<UnstructuredGrid>
<Piece  NumberOfPoints="758" NumberOfCells="1386">
<Points>
<DataArray  type="Float64"  NumberOfComponents="3"  format="ascii">-1.570796326794897 3.048 0  -1.570796326794897 0 0  1.570796326794897 0 0  1.570796326794897 3.048 0  0 0 0  0 3.048 0  -1.570796326794897 1.524 0  1.570796326794897 1.524 0  -0.04609926118424437 1.524 0  0.7853981633974483 0 0  0.7623485328053261 2.262242601661362 0  -0.7853981633974483 0 0  -0.7853981633974483 3.048 0  0.392699081698724 0.7745759241961347 0  -1.570796326794897 0.762 0  -0.8084477939895706 2.0955 0  -0.68277245543452 0.8915343570675713 0  0.7853981633974483 3.048 0  0.778743707341909 1.468410948960538 0  2.780093748954961e-16 2.285302774973185 0  -1.570796326794897 2.286 0  1.570796326794897 0.762 0  1.570796326794897 2.286 0  -0.9375370967763674 1.47348297960658 0  0.9831575747762593 0.9003629142671278 0  -0.3926990816987241 0.4064697549061488 0  1.177419588818055 1.905 0  0.3692901340097942 1.880893989147954 0  -0.4920225169641509 2.564371687128368 0  0.3926990816987241 3.048 0  1.178097245096172 0 0  1.155705348811136 2.643920532523289 0  -1.178097245096172 3.048 0  -1.178097245096172 0 0  -0.1391296372266528 0.8873724190154949 0  -1.10527745318919 2.528282743051346 0  -0.9817477042468103 0.4742759268549471 0  -0.3416666987802651 1.923944646262223 0  -1.570796326794897 1.905 0  -1.156555306160469 1.030861936336814 0  0.7648449098493205 0.4764142032227 0  0.3926990816987241 0 0  -0.4820376416180818 1.326151321396512 0  0.06374421723344185 0.4545169930886408 0  0.1972735722393064 1.163324878565267 0  0.3900417218314142 2.566922767651637 0  1.570796326794897 0.381 0  1.188877612935585 1.295195418509834 0  1.179914028402171 0.5308585702661928 0  0.7660075594126428 1.865233039449035 0  0.6330293131838399 1.095171663968746 0  -1.201232463242587 2.144287146570887 0  -0.3926990816987241 0 0  -0.3926990816987241 3.048 0  1.178097245096172 3.048 0  0.7684409382397209 2.649499271873753 0  -1.236954997304436 1.7145 0  -0.1088573452899617 2.666651387486592 0  -1.570796326794897 1.143 0  -1.570796326794897 0.381 0  1.570796326794897 1.143 0  1.570796326794897 1.905 0  1.570796326794897 2.667 0  -1.570796326794897 2.667 0  -0.6730839067294777 1.743003792473746 0  1.199831389396789 2.275437921225198 0  0.3936837537618041 1.495643752599615 0  0.01539369169800942 1.928544709491661 0  0.4156551272669651 0.4219033286010089 0  0.3401546043708642 2.225103550856524 0  -0.3379897306391274 2.262671266279809 0  -1.23624174049596 0.7000907110925838 0  -1.265224057170889 1.360131453617764 0  -0.1224339018241312 1.210043725539656 0  1.289286200625578 0.9918698881707442 0  -0.7751142346211329 1.197848666814478 0  1.003546186550495 0.2660297686099683 0  0.1963495408493621 2.808538634159524 0  -0.8079023568959116 2.703551618159924 0  -0.3480226984353056 1.610059855391589 0  1.075147893506229 1.598068412087719 0  -0.8290627893979112 2.399544545867518 0  0.6965048925255637 0.7972100472372819 0  -1.257765094876752 0.3107645483825858 0  -0.6724835324263325 0.5684215760013651 0  -0.3995059642389676 0.7173610149075536 0  0.9136951972244611 1.187564504803626 0  -0.964259350608907 0.8095514380783081 0  -0.7565990314517038 0.2897049735129544 0  -0.9603859887840651 1.834914433810327 0  -0.1457055965762301 0.2521630699436873 0  0.1963495408493621 0.2041911848053476 0  0.6241974196550791 0.231695999252114 0  -0.4098815011312292 1.029160072548571 0  0.9592800715482012 2.452820690856482 0  0.9648684169153161 2.840751931000357 0  0.5890486225480862 3.048 0  0.164631037784102 1.698913854044779 0  0.5664480837073581 2.070920238540226 0  1.374107957806476 1.7145 0  0.9861079629544779 2.102471438422718 0  -1.374446785945534 3.048 0  -1.288827800789186 2.762781313597598 0  1.353232957571468 2.835634774483438 0  1.302158670506274 0.2650078124691045 0  0.1394669809465775 0.8907702620243092 0  -0.5631487221059602 2.830992231257464 0  1.372837635547072 2.483038902756259 0  -0.1493395228831287 0.618617259260858 0  -1.32327048447753 2.378769394323546 0  0.56080204725298 1.699622905297025 0  1.570796326794897 2.0955 0  0.5403456747786348 2.786446773498672 0  -0.9817477042468103 0 0  -0.5847039960246873 2.326882432521036 0  0.1225428891326576 2.526494255738436 0  -0.9817477042468103 3.048 0  -0.5522901559753841 2.071668786267058 0  -1.370864794258017 0.9075071715671403 0  -1.043891045637083 1.250611220450313 0  -0.1652643923634778 2.09141301924679 0  -1.044446740946883 2.764982067459552 0  -0.1610370079820225 1.763280243096074 0  -0.3136912237752232 2.810498886211121 0  0.5400974078002052 2.370472734822523 0  -0.7009161718414544 1.427243880175582 0  0.902907438200502 0.6735032943420574 0  -0.9879196222361604 0.2371379634274736 0  1.319268546233604 0.7412771512308228 0  0.5578373583610097 0.608241627784878 0  0.5756483102040615 1.332636919938113 0  -0.5281701577409 0.2032348774530744 0  -0.266729509930448 2.489223923247521 0  -1.570796326794897 0.5715 0  -0.2430656531629531 1.405631921096758 0  0.253622337931223 0.5884397663452474 0  1.284044721043478 1.50372037617638 0  1.570796326794897 1.3335 0  -0.9904333867980613 2.235882060371517 0  0.9871146764618406 1.395690276854986 0  -1.374446785945534 0 0  0.3981951765262902 1.020833864419675 0  0.1670583512016766 1.405384478716078 0  -1.330327693484763 1.938638984813805 0  0.2106653067452682 2.040805097078886 0  1.570796326794897 0.5715 0  1.334822181490566 2.081373939821734 0  -0.9303227889097604 1.033236710715967 0  -1.34639228476592 1.150776798768373 0  -1.570796326794897 0.1905 0  1.106697207481837 1.099709897393925 0  0.4137866939027022 0.2104288000383385 0  -1.570796326794897 2.0955 0  0.9761377489246634 0.4754251272674608 0  1.377108465632662 0.4605024587280874 0  1.108114944719677 0.7297638044096917 0  0.3695908229138113 1.285681859811955 0  0.9799112840676307 1.800306505551499 0  -0.001696842075803034 1.042028929293442 0  1.366537356420357 1.185723700290463 0  -1.385029840108318 0.47625 0  0.05842649915411911 0.6874537157920781 0  -1.183268988745763 0.4997334438341218 0  -0.6073502281622543 1.081347079085406 0  -1.026941765261019 2.031536576622642 0  -1.570796326794897 2.8575 0  0.8159726599830506 1.011928543199529 0  0.7652782693277244 2.849245002237192 0  -0.5252326280373281 1.520125074885265 0  0.7648326174724897 2.063743853392348 0  0.757099741434616 1.666331708950521 0  -0.1963495408493621 3.048 0  -0.005410422648647092 2.843333256403111 0  -1.395368347654653 2.19075 0  1.374446785945534 0 0  0.9817477042468103 3.048 0  0.1963495408493621 0 0  -0.1963495408493621 0 0  0.5890486225480862 0 0  0.1963495408493621 3.048 0  0.9817477042468103 0 0  1.374446785945534 3.048 0  -0.5890486225480862 3.048 0  -0.5890486225480862 0 0  -0.06865319188571758 2.471928549109083 0  1.159049337209348 2.838090892449816 0  0.5817075150535711 2.596909954318943 0  0.7656515661107315 2.455866896253367 0  0.9620790410056582 2.647119292933887 0  0.3676829480103987 1.68739481709134 0  -0.8886101495223063 2.878912500124773 0  -0.3317793704126089 0.1873756770788371 0  -1.383208664444332 2.577695923010364 0  -1.043597917648523 1.648216005744782 0  -1.362178343413552 1.546177620526679 0  -1.570796326794897 1.7145 0  -0.8462722504471433 1.648434957877788 0  -0.588076822054871 0.3899352838051667 0  1.570796326794897 2.8575 0  -1.570796326794897 0.9525 0  1.570796326794897 0.1905 0  1.570796326794897 1.7145 0  1.570796326794897 0.9525 0  -1.570796326794897 1.3335 0  1.570796326794897 2.4765 0  -1.570796326794897 2.4765 0  0.8103777117362174 0.287468585434799 0  -1.145334531235929 1.881885620422454 0  -0.8620560674467429 0.6361265362229395 0  -0.321688879263093 1.207848147265888 0  -0.7798551871678058 1.904240998338365 0  -0.4724954359209014 1.769587110195458 0  -0.667402576232105 2.495985359319255 0  0.5365063314111709 0.8945566719544227 0  0.1855702280441107 2.342745654422604 0  0.55510120733165 1.88540118775351 0  1.188295809121239 2.460939894898248 0  1.38587897409014 2.260870763688798 0  1.383978812419919 1.901097375082534 0  -0.2265735189171196 1.049795314962436 0  0.7387890113368257 1.246392780742437 0  0.5763234466275948 1.516457524623135 0  -0.203279258075353 0.4348372558382012 0  -1.179202350299698 1.523245956950107 0  -1.151844216720993 2.318990544544152 0  -1.410806081599612 0.6547540757597369 0  0.04190096621848406 2.108399609871347 0  0.5925649981629265 0.4343292987553075 0  0.2371113691258682 0.4102816185532077 0  1.334103818253725 2.657728219912091 0  0.9405077369493808 2.275181409651143 0  -0.633962040105568 2.669303984283053 0  -0.6045614816381242 1.904349918307267 0  1.159697673803787 2.079238591118184 0  -0.004643801590645341 1.347662554528907 0  0.3691400131247499 2.395423267764724 0  0.3855005143298051 2.055603978165229 0  0.01839821075864462 0.1788084577298442 0  -0.9568120219060965 2.61629404172056 0  0.1783135820912846 1.871116340262054 0  0.3649950158263953 2.745288921627024 0  -0.3142054567155264 0.5671999812317062 0  -0.4933549623779417 0.564740705097546 0  0.06092775470575962 2.685867440722903 0  -0.1801827362748675 2.337517890002858 0  -1.063355415037434 0.6386189748554 0  -1.205242865599393 0.8676070232612285 0  -0.4176020549597784 2.412196127179313 0  -0.3347051678178828 2.093252344225509 0  -1.427772711006951 0.2857500000000001 0  0.8835729338221293 0.1362887052191026 0  -0.6831011505337878 0.1389086130988801 0  -1.403875662049666 1.77648180985222 0  1.394165436236593 1.362588987767805 0  -0.5007942298153729 0.8700626692351643 0  -0.6093220848169366 0.7321530406295067 0  0.007534593095922887 1.760126887057542 0  -1.276272015520854 0.140425968067263 0  -0.7270478511000733 2.847016806985676 0  1.436331331726002 0.85725 0  -0.1770320080670663 1.927167796173981 0  0.7200726153501196 0.6345534912379586 0  -1.099983122078282 0.3577316115390257 0  0.2324759135153202 2.648405702327079 0  0.9054371869972004 1.582409569434113 0  0.5000672234640285 1.188708149930449 0  -0.340793734207542
[...]
<PointData  Scalars="Elastic Energy"> 
<DataArray  type="Float64"  Name="Elastic Energy"  format="ascii">2.8720712480709910e+01  2.9360140537585785e+01  2.9399565753944582e+01  2.8580570645366475e+01  7.9114239179009274e+01  1.5752423210433453e+03  1.9472718641641492e+01  1.9684678847734808e+01  7.9885957637494315e+01  3.3084134172483317e+00  1.3791500322297594e+02  3.3227978843274535e+00  3.5810676555213860e+01  1.8369885916526290e+01  2.5590738679889881e+01  1.2277753447385146e+02  1.0546427064699923e+01  2.9649723528674244e+01  1.6508947535536660e+01  2.4245851851270990e+02  9.3773649918273048e+00  2.5795534053914356e+01  1.0231276007580565e+01  6.3055136326490544e+00  4.5453473005474532e+00  2.3135582742840906e+01  5.6018712436382065e+00  8.4223972466156667e+01  8.9928533097771854e+00  5.8897693041086868e+01  2.1431807542959277e+01  8.8042911099387837e+01  1.1865594999909612e+02  2.1449740286040644e+01  1.8402796749828173e+01  9.9911614279745237e+01  7.5891917694066091e+00  5.8453712060650012e+01  1.6247388094845320e+01  9.0327015544528830e+00  4.4006674099245009e+00  2.2268179636600603e+01  2.4966359428918164e+01  3.7847461175191604e+01  1.4711395545839281e+01  3.3003029346394186e+01  2.7584558475084105e+01  8.0673167593052781e+00  1.6002465577204489e+01  8.0227165594308374e+01  1.4213206374098206e+01  1.0821567695479276e+01  2.1756524067739633e+01  5.6996726430752581e+01  1.1949315517173531e+02  7.3844631625505130e+01  6.7935360293926674e+00  2.6252500547609588e+02  2.3418169534420372e+01  2.7550050664316959e+01  2.3138311391921246e+01  1.6734021748075808e+01  3.8171427927292911e+00  3.4549792266155208e+00  7.4874816150658418e+01  1.9127489201794504e+01  4.8646557847605536e+01  2.1416590940181368e+02  2.1368047950779555e+01  3.8577507834983791e+01  4.6702018865298207e+01  1.6650068450513920e+01  1.0974203853780855e+01  1.2041203662789773e+01  1.6013153459949869e+01  1.0277553065648048e+01  1.1053218433483192e+01  1.6525017946578893e+02  8.8761283182993324e+01  9.6507457305009495e+01  3.8086316807151341e+00  1.2596574392968161e+02  9.0376260531693706e+00  2.2246606214309008e+01  7.5197923448637471e+00  1.8698670366903055e+01  5.3216763550745076e+00  4.5419309427888779e+00  4.1657397779631768e+00  2.0230565716825566e+01  4.6538710669895821e+01  4.4727807371287788e+01  6.7135767909191717e+00  1.6563191399366733e+01  1.2544241602930492e+02  1.2960995544020497e+02  1.7287846506879777e+01  1.2846244331086433e+02  1.0701977991556605e+02  1.2940296857372234e+01  5.4523327535880981e+01  5.6055828068997286e+01  5.7185183383801764e+01  4.0922864369086696e+01  2.4028261976642863e+01  1.8401871170109303e+01  7.4190596835420122e+00  8.6384173463092448e+00  2.7748891261805312e+01  9.4631603712714636e+00  9.4347334102500355e+01  1.3819100046846955e+01  6.2655763253741608e+00  1.2611922226917935e+01  5.4666073200011745e+01  2.2506190833410557e+02  9.8840200535444239e+01  1.0547262959049739e+02  2.0592431774015008e+01  4.3116497598009351e+00  1.5455242327527972e+02  1.4035873480162942e+02  1.1373437758966401e+02  7.9092994779186455e+01  2.8353721380078053e+01  1.9992284945894504e+01  4.3173939608288956e+00  1.0492550793327251e+01  1.9973266843861069e+01  1.3131269467132027e+01  2.2134373416379677e+01  1.1707491326216269e+01  1.0550208086054899e+02  2.6185144062094821e+01  3.3048662895214960e+01  2.5996182295019540e+01  1.0703151152620922e+01  2.1331573435407488e+01  7.8939999624823855e+01  4.3859812952502839e+00  2.6722758201381755e+01  1.6801877931526693e+01  2.8817986837488711e+01  8.8313438862634186e+00  1.1675403676298806e+02  2.6483148876204403e+01  8.0534556042129708e+00  4.4645763671738408e+00  1.7161220330015585e+01  2.7361591024407229e+01  6.5184909507804321e+00  2.2020098283995797e+01  1.3932594682843328e+01  7.4107144483015439e+00  2.4448853340896463e+01  9.9435775918137299e+00  2.2692296501436971e+01  1.3807158686034503e+01  1.3805307838784127e+01  1.7786233936758059e+01  2.4531711378754238e+01  2.6190839627562365e+01  1.6601488999618297e+01  1.4741991534858077e+01  2.9467760867326987e+01  1.1153669590662387e+01  6.9185535420361619e+00  3.2622323399662385e+01  4.8346211276841650e+01  1.2692040546445172e+02  3.9324834776942936e+01  2.1621581543453109e+02  3.7610439507837435e+02  8.4877464197699144e+00  2.6845721483174703e+01  9.9555824572884276e+01  5.9079276332118816e+01  5.9595622634346221e+01  2.8032087277524589e+00  1.8591624887289871e+02  1.2793639335683743e+01  5.6286585925490975e+01  1.9109217111431061e+01  2.7068759059233765e+00  2.4863114200758116e+02  1.2305683900673246e+02  1.4026408943243764e+01  1.0480381752310875e+02  1.3490865082562064e+02  1.1468211987069840e+02  8.3858104901194352e+01  3.0505713099047775e+01  1.0429279681431062e+01  4.6578245821065769e+00  1.3945036313050272e+01  1.7971795452579578e+01  2.0320405029781295e+01  1.0116680663533261e+01  1.0869349402369167e+01  2.4658431842982630e+01  2.7268755366316764e+01  1.7901851124883031e+01  2.5056358925210205e+01  2.1644661392610992e+01  5.3120030607396407e+00  4.2628213198592215e+00  4.3746482024622226e+00  5.8119432270562381e+00  4.0745460396951483e+00  1.8323717427757888e+01  8.7587395726816126e+01  1.2304375610410924e+02  5.6981361281266039e+01  1.5152223360058919e+01  1.6653408845119671e+02  1.3483979311909002e+02  4.3357405131542073e+01  7.7450616262827303e+00  1.1748637911073436e+01  1.5172556228350434e+01  1.2247527017223335e+01  4.1380860292836985e+01  3.3777704102517475e+01  5.9048737380994512e+00  3.8770220958999985e+01  2.3960268188990298e+01  2.3488331058264373e+02  1.0275187824033310e+01  3.3471717423387091e+01  2.5458148160597350e+01  1.0974161119858341e+02  1.8459744604479127e+01  1.3618003367642007e+02  1.0835224304180278e+01  1.5841331041966290e+01  3.7331971769752151e+01  3.1997102035286929e+01  5.4165390603968255e+01  1.5212488177753218e+02  1.0671809923571406e+02  4.7328853936186853e+01  2.4396825997529831e+01  1.6187455601353872e+01  3.0095344701329748e+02  1.7128820037991881e+02  8.9837435884051526e+00  1.3066925526153147e+01  2.2526320386532806e+01  4.3449753678002125e+01  2.6829350466270153e+01  6.4461875816282515e+00  3.1904539556066904e+00  1.3765451046807970e+01  1.7140122340551660e+01  1.5820728032156495e+01  1.1648329930720354e+01  1.4661910649194846e+02  2.2523499616610117e+01  2.0956239320004791e+01  2.3344705150487730e+01  1.2457352660745448e+02  6.5265893046338492e+00  1.4676934240406139e+01  1.4850103466487860e+02  9.7994572715021597e+00  1.8737266569647826e+01  6.1240599519270035e+01  5.9912621442123530e+01  4.0004737747211374e+00  3.9880559946709355e+00  2.2103723444887915e+01  1.2683453070604914e+02  1.7299026666310890e+01  8.7137623679340717e+00  8.8754865794914330e+00  8.9659550977061180e+00  9.0938494866687059e+00  1.5146138849726716e+01  1.4727043915351040e+01  4.0182528040682371e+01  5.0612757211650514e+00  1.0121879312372926e+02  8.2916587509312237e+01  1.3247706732966074e+02  6.2053431717321557e+00  1.7902839227921994e+01  2.1767244518187894e+01  4.9966341060768444e+00  1.1495300725688057e+02  1.5850778874677704e+02  2.1972626893649814e+01  5.5806363655538412e+01  1.8056615262019196e+01  8.0004105708640850e+01  1.0991803158235852e+01  1.7906732754816563e+01  1.9660673077093477e+01  1.3080412076147746e+02  1.0708771983294913e+02  5.2429679465703387e+00  4.5136023747081147e+01  4.9610642593704961e+00  1.7737242818541638e+01  2.4359828120399790e+01  1.1044591775900617e+01  1.5843759504947744e+02  4.4849798999485024e+01  1.7464450691322309e+01  2.2357242045244583e+01  5.2214488532750378e+00  7.0459376770374035e+01  3.1449630636012724e+01  1.1462477000851681e+01  5.0183293111261413e+01  4.3979074569970003e+00  4.4152582258179160e+00  6.4801488805643563e+00  2.2431866235963710e+01  2.5692215525268516e+01  2.6792595487672600e+01  1.6509642023283199e+01  4.1894007177670908e+01  2.5663251112093548e+01  7.5767313055984333e+00  1.7553341885838041e+01  2.0834905052762615e+01  7.4642499681145020e+00  1.7320491407629529e+01  1.7112733375229343e+01  3.1971610535160693e+02  1.0430812943295813e+02  1.4581151853713479e+01  1.3437707603696868e+01  3.5149049156849635e+01  8.9633778907860435e+00  6.7607796884342761e+00  5.7002573312022635e+00  4.2947355522327214e+01  3.4470120838620581e+01  1.4624551624600830e+01  2.6318089850041391e+00  1.5663623785276975e+01  2.3540456687637789e+01  1.3426215024578804e+02  5.3187802045668100e+01  7.0020471899853680e+00  1.2243420497207285e+02  1.4041599136968770e+02  3.3276997024246512e+01  1.8295951798384650e+01  6.2846028595667008e+01  2.0721515736711968e+01  1.9081136455030315e+01  1.3884480464632094e+02  9.2547246648060852e+00  9.4523663367988931e+01  4.2815709020329045e+01  1.1241046718393000e+02  1.3609315170025849e+02  5.9840547376452790e+01  1.0175736326497596e+02  1.4635539900430342e+02  1.0275675467905380e+02  1.2602598460262790e+02  1.7246981956835707e+01  4.9493224998465832e+00  9.3269023685527479e+00  1.2681771389689938e+02  7.7156673486705589e+00  1.2287268023988482e+01  2.7091388289062397e+01  8.0514527912755923e+01  1.3770943220013628e+01  2.4337284279720657e+02  5.7194546651026181e+00  1.1249155620070265e+01  1.3657232706317853e+01  9.7457595519151123e+00  3.4247309804425797e+01  2.0584252620516139e+01  8.3023383162455868e+00  1.7279189216180924e+01  9.1350141294689937e+00  2.9268311723965493e+01  8.7598049809642447e+01  6.2472605967558170e+00  1.9050397687053525e+01  1.3352819218197715e+02  1.1539118794984240e+02  7.1194443769266684e+01  1.5567063166992964e+01  9.5374166604913171e+00  7.9356400554809055e+00  3.5621694265271152e+01  4.6392017180707441e+01  1.6801020112414466e+01  9.7136026562889455e+01  7.7589623469535127e+01  9.6264744422952688e+01  1.2502252776910240e+02  1.0158352697761246e+02  5.0440015842764305e+00  1.1443889069169018e+01  1.7735431264630407e+01  1.7435156788664798e+01  7.2818579376314947e+00  2.2407167224350783e+01  1.4272402484082683e+01  2.3746714001011128e+01  1.7099366080229441e+01  1.8786238690400392e+01  4.2681798802444773e+00  2.2695441228045416e+02  1.2942897137071787e+01  1.9752671202377229e+01  5.1810026153930593e+01  2.0815209857036571e+01  1.3486340747626980e+02  2.5867006672333687e+01  1.3544083029697299e+02  7.7801012708680076e+01  4.6495205904724015e+00  1.4101167352385562e+02  2.8070019219203294e+02  4.2513624350291849e+01  1.3770132478961376e+01  1.1762447612069757e+01  1.0846021160129720e+01  1.8930685680194284e+01  1.5064704160636619e+01  9.2578894570292064e+01  4.7909530849792439e+01  1.0681377244684580e+01  5.3218397637705701e+00  4.2844093496006863e+00  1.0113130960381289e+01  3.9887333749500948e+00  1.2306093871429375e+02  1.6126158679663330e+01  1.6754606188681414e+01  1.8864351144748088e+01  3.1009943240446376e+01  1.2319451154756722e+02  1.0946231633945808e+02  3.4550752683977670e+01  1.7656454860335700e+01  6.7890077673243852e+00  1.7946031369132115e+01  1.6639648944090350e+01  3.4655432376357517e+01  7.0231026550394278e+00  2.2305474815273351e+02  3.6446953227784419e+01  2.4087916495686486e+01  8.1854249667640566e+00  1.7312924787821609e+02  2.3209343584417994e+01  1.4346519155002914e+01  4.1310759053737645e+00  5.1295674937396409e+00  4.2828377289787536e+00  9.8133887710454800e+01  1.6971796540026805e+01  7.2817085772423056e+01  2.0899429340984500e+02  7.1338461563158845e+01  3.6455799629076196e+01  7.8789385451225442e+00  1.1463493632480838e+02  1.5653966111376684e+01  8.7054498879576805e+00  6.7679284813633389e+00  5.0142405996786550e+01  1.8544346747298416e+01  1.7287213240697913e+01  1.2155799865839411e+01  1.7949306403898749e+01  3.1592861431093343e+01  7.9227577312319534e+02  3.2307167129696104e+01  2.5944199154953608e+01  1.5960639372342127e+01  1.4405088692996825e+01  1.0763249952653563e+02  2.1452731145860312e+01  3.3371475612552665e+01  8.7754331952606805e+01  1.8533302212797910e+01  3.5784753518746903e+01  5.2504711020840498e+00  1.8880243547543319e+01  1.3156823008949699e+01  1.1207501486255556e+01  7.0277517632306086e+01  1.1620384340044697e+02  2.4704572925236852e+02  7.3378489221825049e+01  4.5514822900206786e+00  3.7406115896601328e+01  7.4315070175332165e+00  1.8121013688452413e+02  6.2307219947049660e+01  7.2381725240751194e+01  1.3525152604204512e+01  5.0556483415181134e+02  1.3223937469936613e+01  2.4338797481763145e+01  3.6584848597555066e+01  7.9055750311448021e+00  3.7725746346292162e+01  2.5897328906624445e+01  8.7491383871702624e+00  4.6815188264093104e+00  2.2089852428528680e+01  5.7860242553326016e+00  1.3883554880086109e+01  3.9523100568039924e+00  2.0571606589365480e+01  3.8341383592230884e+00  8.2557334169234888e+00  2.8317327289598300e+01  2.7908668484297159e+01  4.4475841264507521e+00  4.5342384308905537e+01  1.2847973666254168e+01  1.0335358312069562e+01  1.5133742446252343e+01  3.4602910117123770e+01  3.3116215045469978e+01  1.3703351174678964e+01  4.7568214162723052e+01  7.2193887410844823e+01  2.0058448829952326e+01  7.6166997419716918e+00  5.3174722279965136e+00  1.5026179052622805e+01  3.8395776028114850e+00  1.7842225999718725e+01  6.0965902246624939e+00  1.3588380681379990e+01  6.0966371844752159e+00  7.8292939892146416e+00  7.5641762581264853e+00  4.4425913886123460e+00  5.4610990901948469e+01  2.3951220717885423e+01  1.7977028768583480e+01  1.3244022725427151e+01  2.2985000356078793e+01  9.7585656810667540e+00  5.1892090255692054e+00  1.1645083161450307e+01  9.7437302824175180e+00  3.9356550422485171e+01  1.5448308405218890e+01  3.7500017360648862e+01  7.0859566694642462e+00  5.7121863994984468e+00  2.5054336868194682e+01  1.0221105559423005e+02  1.8101497178284479e+01  1.3296179326580964e+01  3.2855135240687190e+01  6.0129533863192975e+01  4.7686491632108279e+00  2.6819984444096757e+01  2.6570485008918816e+01  2.5530442445437487e+01  2.4667332875291919e+01  2.0868119719682817e+01  1.7630449259190971e+01  2.1776742708881489e+01  1.0422907172648099e+01  1.3650842266234983e+02  2.1133115645561805e+01  7.1938538335392877e+01  2.6128825853221329e+01  2.6328760325322168e+01  5.3116383778441394e+00  2.6751667451537376e+01  2.6525426320870380e+01  2.1525047073722600e+01  2.0859439754095696e+01  5.8444468210820652e+01  1.4444313906639428e+01  4.5925050976350619e+00  1.6138070032102100e+01  1.1317304473302549e+02  7.6280160596527491e+00  5.6802503870391323e+00  2.4295879277857072e+01  2.9583856979332978e+02  3.2714340168130445e+02  1.8371334425601738e+01  5.2508045100959428e+00  1.1871842318917022e+01  1.1933301981489548e+01  8.9579459553738658e+01  8.3439488063228495e+00  1.7243528930105370e+01  2.6371540765502168e+01  2.8279438865230876e+01  1.6389297855242978e+02  1.4517574199330628e+01  8.6545921024752754e+00  1.1968360588262739e+02  1.4490734625464546e+01  1.0963952126329385e+01  8.1206158728295662e+01  1.1970144504495461e+02  1.1081925007461827e+02  2.1392607856341435e+01  5.2767514835071282e+01  1.0831992669236863e+01  4.9819540332870877e+00  5.9546142461641933e+00  4.6613072161941638e+00  5.8029261015055678e+00  4.8734486825189389e+00  6.2013747658882615e+01  1.5282607655075868e+01  1.7237625025380801e+01  4.9217808687603251e+00  1.2402424517397918e+02  5.2476217013047993e+01  1.2556961424738848e+01  1.5281215270037842e+01  1.7303422928220428e+01  1.5263728085930968e+01  2.1168314943844099e+01  5.9471992553195889e+01  2.8144946887507636e+01  3.6110124996693003e+00  2.5203409980494385e+02  1.9123417320122073e+02  1.6030069948225556e+01  1.1154509833689783e+01  3.4302648794552091e+01  6.3677602854710521e+01  3.3149692387933882e+01  1.0506389612286021e+02  1.0496001783039135e+02  2.0609990787150316e+01  5.1751067671842490e+00  4.3332300311872212e+00  1.9128718767170721e+01  1.6431100555568960e+01  8.7550627964369987e+00  4.2230695659343297e+01  2.2344929979740544e+02  3.8782293324657104e+01  5.0228805150582385e+00  1.2143199215017201e+01  1.9598928022165092e+02  4.9236992747418533e+01  1.0755732873970876e+01  1.9290406795367453e+01  7.8141500877524726e+00  9.1039840479068328e+00  7.8244740640816204e+01  1.0613136823097521e+02  6.0452380964309434e+01  1.1651874747082854e+02  8.6883485939833122e+01  3.3713168567844583e+01  7.8614654343892937e+01  3.9721248539581183e+01  4.3571222651962114e+02  2.5037492222131661e+01  1.5491596218560819e+00  3.6441973896567191e+01  1.3477461596561213e+02  1.7372234519715441e+01  2.4704481070352053e+01  1.1556978025455511e+00  7.5835832153119727e+00  2.8341028578138207e+01  3.4532736550695851e+01  1.6143404948134204e+01  5.5156096920225949e+01  2.6666169094938315e+01  3.3724677749650837e+01  1.6573680876783055e+01  1.6560685968300103e+01  2.6274079025540935e+01  6.7755860145880682e+00  1.3106011279013444e+02  2.1852049859473922e+02  1.9414232272081622e+02  1.1086363794042491e+02  9.9189157817983613e+01  7.8977781780772048e+01  1.4255188503279851e+02  1.2686044853464277e+02  1.0600542876366394e+01  7.9320915882757760e+01  1.1848943366708217e+02  1.3124688954458480e+02  1.0835764501062543e+02  1.2504365601093262e+02  1.1254874985530913e+02  8.2702926755966729e+01  5.7827616438808862e+00  4.9042003731881984e+01  8.7187979023173753e+01  9.7134799869018522e+01  8.0770677143586852e+01  1.3130794586679733e+02  8.2838274331257722e+01  5.0649738370057609e+00  2.6119239760555317e+01  2.7889409780656528e+01  2.7282327310756621e+01  1.3653744822744862e+01  2.1603894839441722e+01  3.8737499805343937e+01  3.1742263748551771e+01  2.9312475887823386e+01  1.7125540176690237e+01  2.8554140953508885e+01  8.9308705035883150e+01  1.2653942615395239e+01  8.7785697121067496e+00  2.1061134520512908e+01  9.6085809524423297e+01  1.0487076360975944e+01  1.8268655583928329e+01  1.8285781824088062e+01  3.3282579837281383e+00  5.1320344359856138e+00  1.9265946156688756e+01  2.6874679037220737e+01  2.5124895329666341e+01  2.3877870778857119e+01  2.4084620279601737e+01  2.5085628124293077e+01  2.7867627363533185e+01  2.2383368050840861e+01  1.4758773059702893e+01  1.4795930417460202e+01  2.2136141985239867e+01  6.8199367617079059e+00  1.3294935281435863e+02  1.2541815683985544e+02  1.9106749363082113e+01  1.3477515662784248e+02  7.2694478449637936e+00  5.1291950297613376e+00  7.6778691751637034e+00  2.0531170868012495e+01  7.8560882084134363e+01  1.0918519578101565e+02  1.9867014251722104e+01  6.1758795121302533e+01  2.1333479033914600e+01  5.8081928765225832e+01  2.4258172714174666e+01  9.7152750637311946e+00  </DataArray> 
</PointData> 
</Piece>
</UnstructuredGrid>
</VTKFile>