<?xml version="1.0"?>
<VTKFile type="UnstructuredGrid"  version="0.1"  >
<UnstructuredGrid>
<Piece  NumberOfPoints="758" NumberOfCells="1386">
<Points>
<DataArray  type="Float64"  NumberOfComponents="3"  format="ascii">-1.570796326794897 3.048 0  -1.570796326794897 0 0  1.570796326794897 0 0  1.570796326794897 3.048 0  0 0 0  0 3.048 0  -1.570796326794897 1.524 0  1.570796326794897 1.524 0  -0.04609926118424437 1.524 0  0.7853981633974483 0 0  0.7623485328053261 2.262242601661362 0  -0.7853981633974483 0 0  -0.7853981633974483 3.048 0  0.392699081698724 0.7745759241961347 0  -1.570796326794897 0.762 0  -0.8084477939895706 2.0955 0  -0.68277245543452 0.8915343570675713 0  0.7853981633974483 3.048 0  0.778743707341909 1.468410948960538 0  2.780093748954961e-16 2.285302774973185 0  -1.570796326794897 2.286 0  1.570796326794897 0.762 0  1.570796326794897 2.286 0  -0.9375370967763674 1.47348297960658 0  0.9831575747762593 0.9003629142671278 0  -0.3926990816987241 0.4064697549061488 0  1.177419588818055 1.905 0  0.3692901340097942 1.880893989147954 0  -0.4920225169641509 2.564371687128368 0  0.3926990816987241 3.048 0  1.178097245096172 0 0  1.155705348811136 2.643920532523289 0  -1.178097245096172 3.048 0  -1.178097245096172 0 0  -0.1391296372266528 0.8873724190154949 0  -1.10527745318919 2.528282743051346 0  -0.9817477042468103 0.4742759268549471 0  -0.3416666987802651 1.923944646262223 0  -1.570796326794897 1.905 0  -1.156555306160469 1.030861936336814 0  0.7648449098493205 0.4764142032227 0  0.3926990816987241 0 0  -0.4820376416180818 1.326151321396512 0  0.06374421723344185 0.4545169930886408 0  0.1972735722393064 1.163324878565267 0  0.3900417218314142 2.566922767651637 0  1.570796326794897 0.381 0  1.188877612935585 1.295195418509834 0  1.179914028402171 0.5308585702661928 0  0.7660075594126428 1.865233039449035 0  0.6330293131838399 1.095171663968746 0  -1.201232463242587 2.144287146570887 0  -0.3926990816987241 0 0  -0.3926990816987241 3.048 0  1.178097245096172 3.048 0  0.7684409382397209 2.649499271873753 0  -1.236954997304436 1.7145 0  -0.1088573452899617 2.666651387486592 0  -1.570796326794897 1.143 0  -1.570796326794897 0.381 0  1.570796326794897 1.143 0  1.570796326794897 1.905 0  1.570796326794897 2.667 0  -1.570796326794897 2.667 0  -0.6730839067294777 1.743003792473746 0  1.199831389396789 2.275437921225198 0  0.3936837537618041 1.495643752599615 0  0.01539369169800942 1.928544709491661 0  0.4156551272669651 0.4219033286010089 0  0.3401546043708642 2.225103550856524 0  -0.3379897306391274 2.262671266279809 0  -1.23624174049596 0.7000907110925838 0  -1.265224057170889 1.360131453617764 0  -0.1224339018241312 1.210043725539656 0  1.289286200625578 0.9918698881707442 0  -0.7751142346211329 1.197848666814478 0  1.003546186550495 0.2660297686099683 0  0.1963495408493621 2.808538634159524 0  -0.8079023568959116 2.703551618159924 0  -0.3480226984353056 1.610059855391589 0  1.075147893506229 1.598068412087719 0  -0.8290627893979112 2.399544545867518 0  0.6965048925255637 0.7972100472372819 0  -1.257765094876752 0.3107645483825858 0  -0.6724835324263325 0.5684215760013651 0  -0.3995059642389676 0.7173610149075536 0  0.9136951972244611 1.187564504803626 0  -0.964259350608907 0.8095514380783081 0  -0.7565990314517038 0.2897049735129544 0  -0.9603859887840651 1.834914433810327 0  -0.1457055965762301 0.2521630699436873 0  0.1963495408493621 0.2041911848053476 0  0.6241974196550791 0.231695999252114 0  -0.4098815011312292 1.029160072548571 0  0.9592800715482012 2.452820690856482 0  0.9648684169153161 2.840751931000357 0  0.5890486225480862 3.048 0  0.164631037784102 1.698913854044779 0  0.5664480837073581 2.070920238540226 0  1.374107957806476 1.7145 0  0.9861079629544779 2.102471438422718 0  -1.374446785945534 3.048 0  -1.288827800789186 2.762781313597598 0  1.353232957571468 2.835634774483438 0  1.302158670506274 0.2650078124691045 0  0.1394669809465775 0.8907702620243092 0  -0.5631487221059602 2.830992231257464 0  1.372837635547072 2.483038902756259 0  -0.1493395228831287 0.618617259260858 0  -1.32327048447753 2.378769394323546 0  0.56080204725298 1.699622905297025 0  1.570796326794897 2.0955 0  0.5403456747786348 2.786446773498672 0  -0.9817477042468103 0 0  -0.5847039960246873 2.326882432521036 0  0.1225428891326576 2.526494255738436 0  -0.9817477042468103 3.048 0  -0.5522901559753841 2.071668786267058 0  -1.370864794258017 0.9075071715671403 0  -1.043891045637083 1.250611220450313 0  -0.1652643923634778 2.09141301924679 0  -1.044446740946883 2.764982067459552 0  -0.1610370079820225 1.763280243096074 0  -0.3136912237752232 2.810498886211121 0  0.5400974078002052 2.370472734822523 0  -0.7009161718414544 1.427243880175582 0  0.902907438200502 0.6735032943420574 0  -0.9879196222361604 0.2371379634274736 0  1.319268546233604 0.7412771512308228 0  0.5578373583610097 0.608241627784878 0  0.5756483102040615 1.332636919938113 0  -0.5281701577409 0.2032348774530744 0  -0.266729509930448 2.489223923247521 0  -1.570796326794897 0.5715 0  -0.2430656531629531 1.405631921096758 0  0.253622337931223 0.5884397663452474 0  1.284044721043478 1.50372037617638 0  1.570796326794897 1.3335 0  -0.9904333867980613 2.235882060371517 0  0.9871146764618406 1.395690276854986 0  -1.374446785945534 0 0  0.3981951765262902 1.020833864419675 0  0.1670583512016766 1.405384478716078 0  -1.330327693484763 1.938638984813805 0  0.2106653067452682 2.040805097078886 0  1.570796326794897 0.5715 0  1.334822181490566 2.081373939821734 0  -0.9303227889097604 1.033236710715967 0  -1.34639228476592 1.150776798768373 0  -1.570796326794897 0.1905 0  1.106697207481837 1.099709897393925 0  0.4137866939027022 0.2104288000383385 0  -1.570796326794897 2.0955 0  0.9761377489246634 0.4754251272674608 0  1.377108465632662 0.4605024587280874 0  1.108114944719677 0.7297638044096917 0  0.3695908229138113 1.285681859811955 0  0.9799112840676307 1.800306505551499 0  -0.001696842075803034 1.042028929293442 0  1.366537356420357 1.185723700290463 0  -1.385029840108318 0.47625 0  0.05842649915411911 0.6874537157920781 0  -1.183268988745763 0.4997334438341218 0  -0.6073502281622543 1.081347079085406 0  -1.026941765261019 2.031536576622642 0  -1.570796326794897 2.8575 0  0.8159726599830506 1.011928543199529 0  0.7652782693277244 2.849245002237192 0  -0.5252326280373281 1.520125074885265 0  0.7648326174724897 2.063743853392348 0  0.757099741434616 1.666331708950521 0  -0.1963495408493621 3.048 0  -0.005410422648647092 2.843333256403111 0  -1.395368347654653 2.19075 0  1.374446785945534 0 0  0.9817477042468103 3.048 0  0.1963495408493621 0 0  -0.1963495408493621 0 0  0.5890486225480862 0 0  0.1963495408493621 3.048 0  0.9817477042468103 0 0  1.374446785945534 3.048 0  -0.5890486225480862 3.048 0  -0.5890486225480862 0 0  -0.06865319188571758 2.471928549109083 0  1.159049337209348 2.838090892449816 0  0.5817075150535711 2.596909954318943 0  0.7656515661107315 2.455866896253367 0  0.9620790410056582 2.647119292933887 0  0.3676829480103987 1.68739481709134 0  -0.8886101495223063 2.878912500124773 0  -0.3317793704126089 0.1873756770788371 0  -1.383208664444332 2.577695923010364 0  -1.043597917648523 1.648216005744782 0  -1.362178343413552 1.546177620526679 0  -1.570796326794897 1.7145 0  -0.8462722504471433 1.648434957877788 0  -0.588076822054871 0.3899352838051667 0  1.570796326794897 2.8575 0  -1.570796326794897 0.9525 0  1.570796326794897 0.1905 0  1.570796326794897 1.7145 0  1.570796326794897 0.9525 0  -1.570796326794897 1.3335 0  1.570796326794897 2.4765 0  -1.570796326794897 2.4765 0  0.8103777117362174 0.287468585434799 0  -1.145334531235929 1.881885620422454 0  -0.8620560674467429 0.6361265362229395 0  -0.321688879263093 1.207848147265888 0  -0.7798551871678058 1.904240998338365 0  -0.4724954359209014 1.769587110195458 0  -0.667402576232105 2.495985359319255 0  0.5365063314111709 0.8945566719544227 0  0.1855702280441107 2.342745654422604 0  0.55510120733165 1.88540118775351 0  1.188295809121239 2.460939894898248 0  1.38587897409014 2.260870763688798 0  1.383978812419919 1.901097375082534 0  -0.2265735189171196 1.049795314962436 0  0.7387890113368257 1.246392780742437 0  0.5763234466275948 1.516457524623135 0  -0.203279258075353 0.4348372558382012 0  -1.179202350299698 1.523245956950107 0  -1.151844216720993 2.318990544544152 0  -1.410806081599612 0.6547540757597369 0  0.04190096621848406 2.108399609871347 0  0.5925649981629265 0.4343292987553075 0  0.2371113691258682 0.4102816185532077 0  1.334103818253725 2.657728219912091 0  0.9405077369493808 2.275181409651143 0  -0.633962040105568 2.669303984283053 0  -0.6045614816381242 1.904349918307267 0  1.159697673803787 2.079238591118184 0  -0.004643801590645341 1.347662554528907 0  0.3691400131247499 2.395423267764724 0  0.3855005143298051 2.055603978165229 0  0.01839821075864462 0.1788084577298442 0  -0.9568120219060965 2.61629404172056 0  0.1783135820912846 1.871116340262054 0  0.3649950158263953 2.745288921627024 0  -0.3142054567155264 0.5671999812317062 0  -0.4933549623779417 0.564740705097546 0  0.06092775470575962 2.685867440722903 0  -0.1801827362748675 2.337517890002858 0  -1.063355415037434 0.6386189748554 0  -1.205242865599393 0.8676070232612285 0  -0.4176020549597784 2.412196127179313 0  -0.3347051678178828 2.093252344225509 0  -1.427772711006951 0.2857500000000001 0  0.8835729338221293 0.1362887052191026 0  -0.6831011505337878 0.1389086130988801 0  -1.403875662049666 1.77648180985222 0  1.394165436236593 1.362588987767805 0  -0.5007942298153729 0.8700626692351643 0  -0.6093220848169366 0.7321530406295067 0  0.007534593095922887 1.760126887057542 0  -1.276272015520854 0.140425968067263 0  -0.7270478511000733 2.847016806985676 0  1.436331331726002 0.85725 0  -0.1770320080670663 1.927167796173981 0  0.7200726153501196 0.6345534912379586 0  -1.099983122078282 0.3577316115390257 0  0.2324759135153202 2.648405702327079 0  0.9054371869972004 1.582409569434113 0  0.5000672234640285 1.188708149930449 0  -0.340793734207542
[...]
<PointData  Scalars="Elastic Energy"> 
<DataArray  type="Float64"  Name="Elastic Energy"  format="ascii">5.4806804251161365e+00  1.5365482434781265e+01  1.5361799563092145e+01  5.4955003230129833e+00  2.5126531342254118e+01  9.3256553350857064e+02  3.6886999894084429e+00  3.6868614951146386e+00  9.0485459723732937e+00  4.6287522536828474e-01  8.2290700615016839e+00  4.7665692663789883e-01  1.0666264936297254e+02  6.1516494575286869e+00  9.0056245324442035e+00  3.9953999973485854e+00  1.5968056373159440e+00  1.1529910254359133e+02  2.3317365149037608e+00  4.4913273816816144e+01  7.8003457661938691e-01  9.0359592186474806e+00  7.6382825925418751e-01  2.5746355768725082e+00  3.0923703035816779e+00  8.1396417626406610e+00  2.3286979611534870e+00  5.1849227774349131e+00  5.9914089667530817e+01  3.9676449204362278e+01  9.2934076682248747e+00  2.3341810604691191e+00  3.9162038257920404e+00  9.3726124363869072e+00  1.1105067835587567e+01  2.8729557129660690e+00  3.7475590064486144e+00  6.1065594467399436e+00  1.8252232268450141e+00  4.6737112050560592e+00  1.4000226045855373e+00  9.3985509556811184e+00  3.0153703175840971e+00  1.6890920291676263e+01  8.3809154909261157e+00  4.7372256641793733e+01  1.2234573443095003e+01  3.9908870359030053e+00  7.1206658963194807e+00  3.2632630407066201e+00  1.9742459003845296e+00  1.8038317370825709e+00  9.3480328621349020e+00  4.2656249873968967e+01  3.9214817086508500e+00  5.3088570909258493e+01  2.7670612134676333e+00  1.3175662535443641e+02  6.1946699660264146e+00  1.2269833716075070e+01  6.1362480946032409e+00  1.8150570992179447e+00  1.3801662892951814e+00  1.3309065546763696e+00  2.9729894014226832e+00  1.7394174562833038e+00  3.7822645120983753e+00  9.5453939434076229e+00  7.1990326619423985e+00  2.4138597693598268e+01  2.9419869074744774e+01  7.0810359591345264e+00  4.0928739748943945e+00  9.4094449553649930e+00  6.0808798326362652e+00  1.9015154158977734e+00  4.6799799987857931e+00  8.0789958285951698e+01  6.2658427170529592e+01  4.2891555862366006e+00  2.8313855425272889e+00  1.1246714527440949e+01  1.5277336484656092e+00  9.8279810537272319e+00  1.6087592210796566e+00  6.2528058898970826e+00  2.4151953904355601e+00  2.9648120462101830e+00  1.3962448397448255e+00  2.6645763392687720e+00  1.8028383387213378e+01  1.6779366710641678e+01  2.1058533301277507e+00  4.7324101464758508e+00  6.0822371790762997e+00  3.6673739645725171e+01  4.2614562290216270e+01  7.4780234420700076e+00  6.7591673697709176e+00  2.7388098280016919e+00  2.8202919942579450e+00  3.1609037783822274e+00  1.2189799660366554e+00  1.5290692433697077e+00  1.0796972191403587e+01  1.1120438851192006e+01  5.8123607578559700e+01  9.1216233465584984e-01  1.3427078734683647e+01  1.1321275586486119e+00  2.8857411898142509e+00  1.1792518951901427e+00  5.9256181191133891e+01  4.1605069479887531e+00  2.3975253324000974e+01  8.1697399504087102e+01  5.8803923221338700e+01  7.1356348540786838e+00  7.2212044404775568e+00  3.2130427128599304e+00  1.3834980736113035e+01  1.2608301966201507e+01  7.6480330635217344e+00  3.6056657938012108e+01  3.4559439344005391e+01  2.2075623260462898e+00  2.3595237160376521e+00  4.3310452226715270e+00  7.8245125327475611e+00  3.0431328468947929e+00  2.3389032737250908e+00  4.0240042658270765e+00  4.8806538807577965e+01  1.0501898569773410e+01  6.4729446234203243e+00  1.1183153378977728e+01  3.5465490502740944e+00  4.8557611072510110e+00  3.1615748618666752e+00  2.7611375607087978e+00  1.3335993108569568e+01  4.9618645777081971e+00  7.9227409577905279e+00  1.9795789841158520e+00  1.2280272759241683e+01  1.0566559061503808e+01  1.5625904770976973e+00  2.5277395508737315e+00  5.5435118707603772e+00  1.3188591906169592e+01  3.9906289550638672e+00  7.9076979384933521e+00  1.1689814439308817e+00  3.6789729064528269e+00  1.0448349371775546e+01  5.1159473918620177e+00  4.5692800018343149e+00  2.6316043252739703e+00  1.1061867147216818e+01  5.4350202105193715e+00  1.0424621453541652e+01  1.3978391688422983e+01  7.3695318740204838e+00  2.1408476357717254e+00  2.5267283399663163e+00  2.8277433109041019e+00  1.8315254256933877e+00  1.0004205553295317e+02  2.6771277413855530e+00  4.2880877538965256e+00  2.7551404272062703e+00  1.4974947212431260e+02  1.9263214565344501e+02  1.1460301859935380e+00  1.3369828164115320e+01  5.7956107882802570e+01  2.0165881259302253e+01  2.0211287769022068e+01  1.5346582087996183e+00  1.3811965387273173e+02  4.2334627443922423e+00  3.1304741945244894e+00  4.1463387323662850e+01  1.6056402947768127e+00  8.0756695797786875e+01  3.2228022504325500e+00  6.4638944091274340e+01  2.1171021236223904e+01  1.5943332565948655e+01  4.0690742753598030e+00  6.9962274379175852e+01  1.1278118444347639e+01  1.0028505285001321e+00  2.7138663524867566e+00  3.4866280428693908e+00  2.6598781645446024e+00  2.6299273573708755e+00  2.7649981262363714e+00  2.8781383066383475e+00  7.5739107687335343e+00  1.3130933328086229e+01  2.6711844737776875e+00  7.6209480417679343e+00  4.8801862680729293e+00  7.3262819806841817e-01  7.5305239757167919e-01  1.6746457707303668e+00  2.3857953597850670e+00  1.9618320274213257e+00  5.7096149593649734e+00  3.3788238622526441e+00  3.4340681232308552e+00  4.0880826804586320e+01  2.9566696098427387e+00  4.7958891997621414e+01  3.9573841141033670e+00  1.6931870934778339e+00  1.0594832086405139e+00  2.0052842771447414e+00  8.3648086808405964e+00  1.8984091436532458e+00  2.4777094449648449e+00  1.4238251045624509e+01  3.2178123674324954e+00  1.9944190204520547e+00  9.2825739318558416e+00  1.5669901983277086e+01  2.6296984817402129e+00  1.3579183614925769e+01  1.4018967047499096e+00  3.9805939098077969e+00  7.4411282088200039e+01  3.8509702158576760e+00  2.1133859226697873e+00  9.7632026546629103e+00  4.6716534676965296e+01  9.8453105703326251e+00  2.0418204205744953e+01  1.4076536394919945e+01  7.7142287516065640e+00  2.9949226723400802e+01  9.6065821775389519e+00  4.4920563505322963e+00  1.5879639335943975e+02  4.5898388146611886e+01  4.6949756410195693e+00  5.8679483535517099e+00  4.7584660749914306e+01  1.2678576040573121e+01  1.2284250593269700e+01  2.2819770344581523e+00  1.0569069916831912e+00  2.4535769099905642e+00  4.4758187601074022e+00  3.5051460718160845e+00  2.1800760025466639e+00  9.0259160607273348e+00  1.0332274942257907e+01  1.0016710946126423e+02  7.9778190751563605e+00  8.2944649205071119e+00  1.4131244516453272e+00  6.4541450517053249e+00  5.9320223241823349e+01  2.6066744602373131e+00  2.9594773420961822e+00  4.1520106872876973e+01  3.0597685631383120e+00  2.6811121578262376e+00  1.5543391338232282e+00  1.0922260236030530e+01  8.4438048286693466e+00  2.0813136611763077e+00  1.6995471337758319e+00  2.2332818800907148e+00  4.7960618954017056e+00  4.4202517352279367e+00  6.1768669195136923e+00  6.5386616530180515e+00  2.5804082030468969e+00  3.2948746784336338e+00  3.7020233379124177e+00  6.9318755385461390e+00  3.0307005029745882e+00  1.4633976773635462e+00  7.1935702884265602e+00  1.0211161891586404e+01  1.7191011931375328e+00  5.0163791216770761e+00  8.5270979963304924e+01  6.6388746606227285e+00  3.0650776253666997e+01  4.3482683866323075e+00  6.1743773613547672e+00  1.0300781349980562e+01  3.2558987821195475e+00  6.5695161375441513e+00  5.4534091287098647e+00  2.5671217441948610e+01  1.7892547454162666e+00  3.9074110193039355e+00  3.3628653111746463e+00  7.6453171859608453e+00  9.6270204643124551e+00  1.6487441141624219e+00  2.3472401582078042e+01  1.7374467507006692e+01  2.1609550371265616e+01  6.6801921652281218e+00  1.8840964502729656e+00  2.5581328661520026e+00  2.3345311283810184e+00  1.4479576429487613e+00  1.7427165782353713e+00  2.7523150181931095e+00  3.2760288562606341e+00  4.0402536415268324e+00  1.0326255265816986e+01  1.2408582744967914e+01  1.2067629384039554e+01  3.6725221087327192e+01  1.7830209579259012e+01  1.2467226222932656e+01  2.2728943833551272e+00  7.7542255809785310e+00  5.3930032919771094e+00  2.9690916764118933e+00  2.4902672877332823e+00  3.7501954543356386e+00  1.6295833064542549e+02  8.5153552629611564e+00  3.1825866981679871e+00  1.5465783693913524e+00  1.7420780520198459e+01  4.6226629291914758e+00  7.5194134669804441e+01  2.4948993989131312e+00  1.7507652835880940e+01  1.2791446429594098e+01  4.5996101236262685e+00  8.6878502701658999e-01  7.8276251764766265e+00  1.3196377935168284e+01  4.2471660706678991e+00  1.9431263965599666e+01  7.9015297902956316e-01  4.8414474776709383e+01  2.6668309307900380e+01  1.2697499761033660e+01  1.2150146193054111e+01  3.0480661637812001e+00  9.0084208993252783e+00  2.0231755797600673e+01  4.2222660234815441e+00  1.7700062636068776e+00  9.9393383900056409e-01  2.4180006581908473e+00  4.1257452975040838e+00  1.8061797612183742e+01  9.8748593557150215e+01  4.8464364630469525e+01  9.0262543813926026e+00  3.8901909097204377e+00  1.9708675684853230e+01  5.5280867415330990e+00  2.4286535965748768e+00  4.6929857744427963e+00  7.6339771432935724e+00  2.4407671651742056e+00  5.0482377089544244e+00  3.0856110831516244e+00  2.8428090643673714e+00  6.1207296910859181e+00  6.8338664263019041e+01  9.3363590045403111e-01  1.1858575820188100e+00  1.5218258341716986e+00  5.0863902911696730e+00  1.5978376688411853e+01  8.6147731397547336e+00  2.1835123738348474e+00  3.1573482177151688e+00  3.4049488027721613e+00  1.0800162627255606e+01  1.3629046126684792e+00  7.9733469620779962e-01  8.2354883237994045e+01  8.4544903046973658e+00  1.2912593805894726e+01  3.6617498167382479e+01  2.4269135846410181e+00  1.4684067002064434e+00  8.7080793918346644e-01  1.5798946567636456e+00  2.9557660354796083e+00  2.2152228531151499e+00  5.7188967752662991e+00  3.0547782459978143e+00  3.1497564505583004e+00  3.4521133962735582e+00  5.4621202375862019e+00  1.4173888232253362e+00  5.6072166557014810e+01  7.6757417400072550e+00  6.7813397600931564e+00  1.6387331879777192e+00  2.7156225922338755e+00  1.0124284920024454e+01  8.4543593867961224e+00  3.1088019848424588e+00  4.6051700149700295e+01  2.6546303215708873e+00  2.3347339267035817e+01  5.0787996453810695e+00  8.2276825786665047e+00  1.8964542086180384e+01  5.2484409526282834e+00  9.5765878785727594e+00  4.6992068515057603e+00  8.5779768394045490e+00  1.6862075176772531e+00  2.1204059443978784e+00  5.5441960045139837e+01  1.3006538619777294e+02  1.5676650169819670e+01  8.8750530217919135e+00  9.5135759370315909e-01  1.1372307067082674e+00  7.3615600342739071e+00  5.9814932583328444e+00  2.0631223422790168e+01  4.2290181264556672e+01  5.3251631813937259e+01  3.6886524615741041e+00  2.7925802899493011e+00  1.7775270833219872e+00  2.9481974665499910e+00  2.4800212786389491e+01  3.0153547103109131e+00  2.1084980028812659e+00  8.5745784514084686e+00  1.2554849697218105e+00  2.8885830589610144e+01  3.4617515371079537e+00  2.8544757063096702e+00  2.0931962589736508e+00  2.0152343330650626e+00  6.7696663767388818e+00  5.4112050851047426e+00  5.3572823038610222e+00  7.6148494495279408e+01  1.1643965313689975e+01  9.0691401565683591e+00  8.8349427562485960e+00  2.4034017452338228e+00  9.2244480217470510e+00  2.2745242975535596e+00  2.0150141032910827e+00  1.7137476177708628e+00  1.6124183627413566e+00  2.6411261576989640e+00  5.7706947420479011e+00  5.1199507059619993e+00  9.6841775921369488e-01  7.5616327841009863e+01  4.4125953152843266e+01  4.9064451431719753e+01  1.7881467319955247e+00  6.0355807973968663e+00  2.9573102224340668e+00  1.6761926501934470e+00  1.9898497905605097e+00  2.6758629431912584e+00  6.7609131130703339e+00  5.1249135460262618e+00  2.9294306363452960e+00  4.2450595643237170e+00  1.5368936534205226e+01  4.5998338950241987e+02  1.4341696544040433e+01  9.9859992248490670e+00  4.8892940759546342e+00  1.9890456093431692e+00  3.0620167423932942e+00  8.7684587472876743e+00  2.2229139171065770e+00  3.4676883581868543e+00  6.9691248104652335e+00  8.2090749399403578e+00  1.4429454792330876e+00  6.9351308571763912e+00  3.2407733527493257e+00  4.0270457335976308e+00  9.2419671142515902e+00  4.7641689161635741e+00  1.2359382987271924e+02  1.7398606685875830e+01  3.2960328279227422e+00  2.1933357389575722e+01  2.6701503741471710e+00  9.8833920724864193e+00  7.4014532983754009e+00  1.5632280765587039e+01  1.0207317214312450e+01  2.5849519827321285e+02  5.3013479358187761e+00  1.3191655801767890e+00  2.1909417977026063e+01  2.5161809303896301e+00  2.8418996801388241e+00  1.0735551131342557e+01  3.1447186594539134e+00  2.9011257876345136e+00  1.3031860028889977e+01  3.1701445253316849e+00  3.1336254889982083e+01  1.3141061022547447e+00  4.2505331466949423e+00  2.8712246858836696e+00  2.4121775751134065e+00  1.4533459763228741e+01  1.3508810074757802e+01  2.8159110276001673e+00  8.7751055588168345e+00  2.6618811666232722e+00  1.9761328977333603e+00  2.2906752262175987e+00  4.9416533908410303e+00  1.2285454624805904e+01  4.6630433763095809e+00  1.9209428587856280e+01  6.4301342354043642e+00  7.6131806691361845e+01  4.4098375661147111e+00  3.5924880586787995e+00  1.0598148675007435e+02  9.3914554674483752e-01  7.5341466697766304e+00  3.6244119213090347e+00  3.1734004896068807e+01  2.3356537135853062e+00  4.2002009417665169e+00  3.9305850108214950e+00  3.1056645559297138e+00  5.1848303454077907e+01  7.8603040090570229e+00  6.8618356823900770e+00  6.1557241478756648e+00  3.1108890415613688e+00  4.4203950307884252e+00  2.8374961353618939e+00  5.4787094745692952e+00  4.3295908248202517e+00  1.4784601177901024e+01  3.8404679537997497e+00  1.4643657380087580e+01  1.9868424329915761e+00  1.3973570087553704e+00  1.1593640828135033e+01  3.2301103092517125e+00  3.8061957533358202e+00  3.9014175072472033e+00  1.1849913318363926e+02  1.0221326667112450e+02  2.7194820937728394e+00  1.1367404576189312e+01  1.1539313235978371e+01  1.0384575532523563e+01  1.0889949252835672e+01  9.1129157152948554e+00  5.8964922433733724e+00  6.0141189732157354e+00  4.9737519513167090e+00  8.6689926528630874e+00  7.0283222100864631e+00  4.4943972380149781e+01  9.8127167464453198e+00  2.3066270365800725e+00  1.0999361883435050e+00  1.2459909299381444e+00  2.6259655172788459e+00  2.2338741899257801e+00  8.9198256757741063e+00  5.1723115523454437e+00  6.5515179264981542e+00  1.9652482343209372e+00  1.1348760173924259e+01  2.0962804056961318e+01  7.2628734373060122e-01  3.7423250108878232e+00  1.0692940439694310e+01  1.5403608334012938e+02  1.7522610940317830e+02  6.2068851287815905e+00  2.6980343865456042e+00  1.7833027382191600e+00  1.7710825149359908e+00  4.0142553994355005e+01  6.4755734034107476e+01  2.2233021799873360e+00  1.3242283889317127e+01  1.4637498201594807e+01  8.7444001058572400e+00  3.4675526537149883e+00  2.9624547974560516e+00  5.5247844912143318e+00  2.3642679027947375e+00  5.2750416114787297e+00  3.3305706615254476e+00  3.2652955488405313e+00  4.5614093206005801e+00  7.5343990019206828e+00  2.7381442961181977e+00  1.3379629374825146e+00  3.0583590248019772e+00  3.2877177676782186e+00  2.3435839566807140e+00  2.1384377880534795e+00  2.2826354569703420e+00  2.5260927997850673e+00  9.3913970607964458e+01  8.9218501991264656e+00  2.6013798904507852e+00  4.7704746896023551e+01  7.9404453296156433e+01  9.3573281114769447e-01  6.6781140142145956e+00  4.8192926620809722e+00  7.8825041426289078e+00  3.9670921031101747e+00  3.0035131079810093e+00  2.5182196905927947e+00  1.1110346647848230e+00  6.5859879912981725e+01  6.0729334221531786e+01  4.8259514658145797e+00  2.7533859327986896e+00  2.4155639251279828e+00  3.3539499536831396e+00  2.7170080507187508e+00  1.4304700920132085e+00  3.6033064093432965e+00  4.2614976801072384e+00  8.2318613613220482e-01  1.5145169660209505e+00  9.7667545371708027e+00  1.1305094244907952e+01  2.5329341162006842e+00  2.7461754350252723e+00  2.8668595665729033e+01  1.4684479420281233e+01  1.9656855722177973e+00  2.1599406245729718e+00  3.4286803208229834e+01  1.0957918047385602e+01  3.9567803945751976e+00  8.4555400256498103e+00  2.0171779484907835e+00  4.5697651096073173e+00  2.4734078734848094e+01  9.0415470411130372e+01  9.9536302365637937e+01  2.0237719413020116e+01  1.3773034526585131e+00  4.3339411962671726e+01  2.4834085455469278e+01  1.4951497925118208e+01  2.9509033007851326e+02  1.1822959082434531e+01  2.9007473827529640e-01  4.2728706028998083e+01  9.9058940806134444e+01  6.6849590888634296e+00  1.1658169281426684e+01  2.8954072398675695e-01  1.9196902535267528e+00  1.4697626070252536e+01  4.8720681476658640e+00  8.0057470907140129e+01  1.7290679843107091e+00  1.1601685436058622e+01  3.8491507390347071e+00  6.6320659025509316e+00  4.9200391975723834e+00  1.3219331609219743e+01  2.9014260969496934e+00  9.1554723818919186e+00  4.4491966872332732e+01  5.7491332921391532e+01  3.1620558532476423e+01  5.4015770833723948e+01  1.4845159619175936e+00  1.3002422853634359e+01  3.7145483830676773e+00  5.9524263676100830e+01  7.2518037683887385e+01  5.6771087841698185e+00  2.3298535846365930e+01  3.0719276209639535e+01  1.1602341378923365e+01  4.4827328089322966e+00  3.9191046534016856e+00  2.1672500451690708e+00  2.9091490930571653e+00  3.3047432392484124e+00  3.6422213151141585e+00  7.2701302614972334e+01  3.4051843667066230e+01  6.7307828835587756e+01  1.9768614099136244e+00  9.8264352050303323e+00  1.2847831222593369e+01  1.2774804488367455e+01  4.6702089177679742e+00  1.2102629784124177e+01  1.5634966739096086e+01  1.4395473948940367e+01  1.1424681839729857e+01  4.1137363679646084e+00  1.0764745391462814e+01  4.1838044766660708e+01  2.3958449295644408e+00  2.5813388054482833e+00  5.9698269994765631e+00  2.0961098188863421e+01  1.6762945612859759e+00  3.1410251679695418e+00  3.1615550699701029e+00  9.2739590162657481e-01  1.9142670760287599e+00  4.1897640271478371e+00  1.1357955595661590e+01  8.3093567714540217e+00  6.8384419216372541e+00  6.8436741132791985e+00  8.2426559887441009e+00  1.2865812880757142e+01  5.4928593522951017e+00  1.4834461599086683e+00  1.4838881630468022e+00  5.4720981711739807e+00  7.2407365763206877e-01  5.2848353362670801e+00  5.6523084738941911e+00  8.3429623595656857e+00  9.5208175167857068e+00  2.1379029729516641e+00  2.5040789873470737e+00  1.4794588714911756e+00  1.4631006684213011e+01  1.1043358267255206e+01  4.7614903612246472e+01  4.4979596310339156e+00  1.7969652051293032e+00  5.8292522350081732e+01  3.0841277668771820e+01  1.0843977218908559e+01  8.6869015433630409e+01  </DataArray> 
</PointData> 
</Piece>
</UnstructuredGrid>
</VTKFile>