<?xml version="1.0"?>
<VTKFile type="UnstructuredGrid"  version="0.1"  >
<UnstructuredGrid>
<Piece  NumberOfPoints="758" NumberOfCells="1386">
<Points>
<DataArray  type="Float64"  NumberOfComponents="3"  format="ascii">-1.570796326794897 3.048 0  -1.570796326794897 0 0  1.570796326794897 0 0  1.570796326794897 3.048 0  0 0 0  0 3.048 0  -1.570796326794897 1.524 0  1.570796326794897 1.524 0  -0.04609926118424437 1.524 0  0.7853981633974483 0 0  0.7623485328053261 2.262242601661362 0  -0.7853981633974483 0 0  -0.7853981633974483 3.048 0  0.392699081698724 0.7745759241961347 0  -1.570796326794897 0.762 0  -0.8084477939895706 2.0955 0  -0.68277245543452 0.8915343570675713 0  0.7853981633974483 3.048 0  0.778743707341909 1.468410948960538 0  2.780093748954961e-16 2.285302774973185 0  -1.570796326794897 2.286 0  1.570796326794897 0.762 0  1.570796326794897 2.286 0  -0.9375370967763674 1.47348297960658 0  0.9831575747762593 0.9003629142671278 0  -0.3926990816987241 0.4064697549061488 0  1.177419588818055 1.905 0  0.3692901340097942 1.880893989147954 0  -0.4920225169641509 2.564371687128368 0  0.3926990816987241 3.048 0  1.178097245096172 0 0  1.155705348811136 2.643920532523289 0  -1.178097245096172 3.048 0  -1.178097245096172 0 0  -0.1391296372266528 0.8873724190154949 0  -1.10527745318919 2.528282743051346 0  -0.9817477042468103 0.4742759268549471 0  -0.3416666987802651 1.923944646262223 0  -1.570796326794897 1.905 0  -1.156555306160469 1.030861936336814 0  0.7648449098493205 0.4764142032227 0  0.3926990816987241 0 0  -0.4820376416180818 1.326151321396512 0  0.06374421723344185 0.4545169930886408 0  0.1972735722393064 1.163324878565267 0  0.3900417218314142 2.566922767651637 0  1.570796326794897 0.381 0  1.188877612935585 1.295195418509834 0  1.179914028402171 0.5308585702661928 0  0.7660075594126428 1.865233039449035 0  0.6330293131838399 1.095171663968746 0  -1.201232463242587 2.144287146570887 0  -0.3926990816987241 0 0  -0.3926990816987241 3.048 0  1.178097245096172 3.048 0  0.7684409382397209 2.649499271873753 0  -1.236954997304436 1.7145 0  -0.1088573452899617 2.666651387486592 0  -1.570796326794897 1.143 0  -1.570796326794897 0.381 0  1.570796326794897 1.143 0  1.570796326794897 1.905 0  1.570796326794897 2.667 0  -1.570796326794897 2.667 0  -0.6730839067294777 1.743003792473746 0  1.199831389396789 2.275437921225198 0  0.3936837537618041 1.495643752599615 0  0.01539369169800942 1.928544709491661 0  0.4156551272669651 0.4219033286010089 0  0.3401546043708642 2.225103550856524 0  -0.3379897306391274 2.262671266279809 0  -1.23624174049596 0.7000907110925838 0  -1.265224057170889 1.360131453617764 0  -0.1224339018241312 1.210043725539656 0  1.289286200625578 0.9918698881707442 0  -0.7751142346211329 1.197848666814478 0  1.003546186550495 0.2660297686099683 0  0.1963495408493621 2.808538634159524 0  -0.8079023568959116 2.703551618159924 0  -0.3480226984353056 1.610059855391589 0  1.075147893506229 1.598068412087719 0  -0.8290627893979112 2.399544545867518 0  0.6965048925255637 0.7972100472372819 0  -1.257765094876752 0.3107645483825858 0  -0.6724835324263325 0.5684215760013651 0  -0.3995059642389676 0.7173610149075536 0  0.9136951972244611 1.187564504803626 0  -0.964259350608907 0.8095514380783081 0  -0.7565990314517038 0.2897049735129544 0  -0.9603859887840651 1.834914433810327 0  -0.1457055965762301 0.2521630699436873 0  0.1963495408493621 0.2041911848053476 0  0.6241974196550791 0.231695999252114 0  -0.4098815011312292 1.029160072548571 0  0.9592800715482012 2.452820690856482 0  0.9648684169153161 2.840751931000357 0  0.5890486225480862 3.048 0  0.164631037784102 1.698913854044779 0  0.5664480837073581 2.070920238540226 0  1.374107957806476 1.7145 0  0.9861079629544779 2.102471438422718 0  -1.374446785945534 3.048 0  -1.288827800789186 2.762781313597598 0  1.353232957571468 2.835634774483438 0  1.302158670506274 0.2650078124691045 0  0.1394669809465775 0.8907702620243092 0  -0.5631487221059602 2.830992231257464 0  1.372837635547072 2.483038902756259 0  -0.1493395228831287 0.618617259260858 0  -1.32327048447753 2.378769394323546 0  0.56080204725298 1.699622905297025 0  1.570796326794897 2.0955 0  0.5403456747786348 2.786446773498672 0  -0.9817477042468103 0 0  -0.5847039960246873 2.326882432521036 0  0.1225428891326576 2.526494255738436 0  -0.9817477042468103 3.048 0  -0.5522901559753841 2.071668786267058 0  -1.370864794258017 0.9075071715671403 0  -1.043891045637083 1.250611220450313 0  -0.1652643923634778 2.09141301924679 0  -1.044446740946883 2.764982067459552 0  -0.1610370079820225 1.763280243096074 0  -0.3136912237752232 2.810498886211121 0  0.5400974078002052 2.370472734822523 0  -0.7009161718414544 1.427243880175582 0  0.902907438200502 0.6735032943420574 0  -0.9879196222361604 0.2371379634274736 0  1.319268546233604 0.7412771512308228 0  0.5578373583610097 0.608241627784878 0  0.5756483102040615 1.332636919938113 0  -0.5281701577409 0.2032348774530744 0  -0.266729509930448 2.489223923247521 0  -1.570796326794897 0.5715 0  -0.2430656531629531 1.405631921096758 0  0.253622337931223 0.5884397663452474 0  1.284044721043478 1.50372037617638 0  1.570796326794897 1.3335 0  -0.9904333867980613 2.235882060371517 0  0.9871146764618406 1.395690276854986 0  -1.374446785945534 0 0  0.3981951765262902 1.020833864419675 0  0.1670583512016766 1.405384478716078 0  -1.330327693484763 1.938638984813805 0  0.2106653067452682 2.040805097078886 0  1.570796326794897 0.5715 0  1.334822181490566 2.081373939821734 0  -0.9303227889097604 1.033236710715967 0  -1.34639228476592 1.150776798768373 0  -1.570796326794897 0.1905 0  1.106697207481837 1.099709897393925 0  0.4137866939027022 0.2104288000383385 0  -1.570796326794897 2.0955 0  0.9761377489246634 0.4754251272674608 0  1.377108465632662 0.4605024587280874 0  1.108114944719677 0.7297638044096917 0  0.3695908229138113 1.285681859811955 0  0.9799112840676307 1.800306505551499 0  -0.001696842075803034 1.042028929293442 0  1.366537356420357 1.185723700290463 0  -1.385029840108318 0.47625 0  0.05842649915411911 0.6874537157920781 0  -1.183268988745763 0.4997334438341218 0  -0.6073502281622543 1.081347079085406 0  -1.026941765261019 2.031536576622642 0  -1.570796326794897 2.8575 0  0.8159726599830506 1.011928543199529 0  0.7652782693277244 2.849245002237192 0  -0.5252326280373281 1.520125074885265 0  0.7648326174724897 2.063743853392348 0  0.757099741434616 1.666331708950521 0  -0.1963495408493621 3.048 0  -0.005410422648647092 2.843333256403111 0  -1.395368347654653 2.19075 0  1.374446785945534 0 0  0.9817477042468103 3.048 0  0.1963495408493621 0 0  -0.1963495408493621 0 0  0.5890486225480862 0 0  0.1963495408493621 3.048 0  0.9817477042468103 0 0  1.374446785945534 3.048 0  -0.5890486225480862 3.048 0  -0.5890486225480862 0 0  -0.06865319188571758 2.471928549109083 0  1.159049337209348 2.838090892449816 0  0.5817075150535711 2.596909954318943 0  0.7656515661107315 2.455866896253367 0  0.9620790410056582 2.647119292933887 0  0.3676829480103987 1.68739481709134 0  -0.8886101495223063 2.878912500124773 0  -0.3317793704126089 0.1873756770788371 0  -1.383208664444332 2.577695923010364 0  -1.043597917648523 1.648216005744782 0  -1.362178343413552 1.546177620526679 0  -1.570796326794897 1.7145 0  -0.8462722504471433 1.648434957877788 0  -0.588076822054871 0.3899352838051667 0  1.570796326794897 2.8575 0  -1.570796326794897 0.9525 0  1.570796326794897 0.1905 0  1.570796326794897 1.7145 0  1.570796326794897 0.9525 0  -1.570796326794897 1.3335 0  1.570796326794897 2.4765 0  -1.570796326794897 2.4765 0  0.8103777117362174 0.287468585434799 0  -1.145334531235929 1.881885620422454 0  -0.8620560674467429 0.6361265362229395 0  -0.321688879263093 1.207848147265888 0  -0.7798551871678058 1.904240998338365 0  -0.4724954359209014 1.769587110195458 0  -0.667402576232105 2.495985359319255 0  0.5365063314111709 0.8945566719544227 0  0.1855702280441107 2.342745654422604 0  0.55510120733165 1.88540118775351 0  1.188295809121239 2.460939894898248 0  1.38587897409014 2.260870763688798 0  1.383978812419919 1.901097375082534 0  -0.2265735189171196 1.049795314962436 0  0.7387890113368257 1.246392780742437 0  0.5763234466275948 1.516457524623135 0  -0.203279258075353 0.4348372558382012 0  -1.179202350299698 1.523245956950107 0  -1.151844216720993 2.318990544544152 0  -1.410806081599612 0.6547540757597369 0  0.04190096621848406 2.108399609871347 0  0.5925649981629265 0.4343292987553075 0  0.2371113691258682 0.4102816185532077 0  1.334103818253725 2.657728219912091 0  0.9405077369493808 2.275181409651143 0  -0.633962040105568 2.669303984283053 0  -0.6045614816381242 1.904349918307267 0  1.159697673803787 2.079238591118184 0  -0.004643801590645341 1.347662554528907 0  0.3691400131247499 2.395423267764724 0  0.3855005143298051 2.055603978165229 0  0.01839821075864462 0.1788084577298442 0  -0.9568120219060965 2.61629404172056 0  0.1783135820912846 1.871116340262054 0  0.3649950158263953 2.745288921627024 0  -0.3142054567155264 0.5671999812317062 0  -0.4933549623779417 0.564740705097546 0  0.06092775470575962 2.685867440722903 0  -0.1801827362748675 2.337517890002858 0  -1.063355415037434 0.6386189748554 0  -1.205242865599393 0.8676070232612285 0  -0.4176020549597784 2.412196127179313 0  -0.3347051678178828 2.093252344225509 0  -1.427772711006951 0.2857500000000001 0  0.8835729338221293 0.1362887052191026 0  -0.6831011505337878 0.1389086130988801 0  -1.403875662049666 1.77648180985222 0  1.394165436236593 1.362588987767805 0  -0.5007942298153729 0.8700626692351643 0  -0.6093220848169366 0.7321530406295067 0  0.007534593095922887 1.760126887057542 0  -1.276272015520854 0.140425968067263 0  -0.7270478511000733 2.847016806985676 0  1.436331331726002 0.85725 0  -0.1770320080670663 1.927167796173981 0  0.7200726153501196 0.6345534912379586 0  -1.099983122078282 0.3577316115390257 0  0.2324759135153202 2.648405702327079 0  0.9054371869972004 1.582409569434113 0  0.5000672234640285 1.188708149930449 0  -0.340793734207542
[...]
<PointData  Scalars="Elastic Energy"> 
<DataArray  type="Float64"  Name="Elastic Energy"  format="ascii">3.2580070562715218e+03  1.2471618194013669e+01  1.2611976158197610e+01  3.1983514932439552e+03  2.5583239329538120e+01  6.4385462474355336e+03  3.1817084939260813e+00  1.9060009563012870e+00  3.6550745988654239e+02  4.9344466482435667e+00  1.5130990288957280e+01  5.0948712227049979e+00  3.1585634016715922e+01  1.3307939887449183e+02  1.5017043847942544e+01  5.2186311947620126e+01  2.6857414868228585e+02  3.1724445687424055e+01  1.6798728751660283e+02  3.9209925372530586e+02  1.8129634759509847e+02  1.5519467140233717e+01  2.0291052478509050e+02  1.9239329550929776e+02  3.8445256310198268e+01  1.7804287335507783e+02  1.7422035751712502e+02  1.0584938895942693e+02  4.6052553773603300e+01  1.0628083912968351e+02  8.8842977113266990e+00  1.5489395747659100e+02  1.1128372890833515e+02  8.7422923369260150e+00  2.3015906722743765e+02  1.4543986264897438e+02  2.2048430713103029e+00  1.3596378464675360e+02  2.5057273485286661e+01  1.4441779348852233e+01  2.8335824935420980e+01  2.7208905182723353e+01  2.2310152643449797e+01  2.4557342153580871e+02  2.1352016262339131e+02  8.7379760389622291e+01  1.3299527924285073e+01  3.6840708783437982e+01  5.3269541636001394e+00  7.2442713034566196e+01  1.9846514290792354e+02  2.0434114360581131e+02  2.6559573917431344e+01  8.9737672893675239e+01  1.1267827231549703e+02  3.9716285248630232e+00  8.7935832735045267e+01  4.3977888956258107e+02  1.2912992764933385e+01  1.3144426393094408e+01  1.2428375016209115e+01  2.6386165171268068e+01  8.2283003099287464e+02  8.9613150193317381e+02  4.3767842282182457e+01  2.4124792247254027e+02  5.4705763320187756e+01  3.6581180645800475e+02  1.5569489962928731e+02  1.4689744068341679e+02  1.4926691822167047e+02  6.6995448753124300e+00  2.2453067351493143e+01  3.0366386516751271e+02  7.4926559301901117e+00  2.3450138054002039e+02  2.3853866762921303e+00  2.1171540409073273e+02  4.3746342947921315e+00  9.9987677313220729e+01  1.6332964252027838e+02  1.6931825959334304e+01  2.2752755790733690e+02  8.8799645520348776e+00  9.7135231216602762e+01  2.1167827888887342e+02  1.9384737598565306e+02  3.1207411674875690e+01  1.1048432306430847e+01  1.7637437520192483e+02  5.0996735962126223e+01  4.6063370867781600e+01  2.2899596629366243e+01  3.5710416393649169e+01  5.4089551734043447e+01  6.5824582642910983e+00  4.3827182307740664e+01  3.0045944290009373e+02  7.8007758578882074e+00  2.6720723437902198e+01  1.6056605835170839e+02  5.0607338992937019e+02  2.3340408840490400e+02  4.4236784094868659e+02  1.0138699065205328e+01  2.4453858038608783e+02  3.3130128893614547e+01  3.2236851412954167e+02  1.6277077012709088e+02  2.6605415965715571e+02  1.2957531295229193e+01  8.2388269820921352e+01  3.1410741391911927e+01  5.3605007407401066e+00  1.4466097839682167e+01  3.6383361012784877e+02  4.5572531603481487e+01  1.4033848772247218e+01  1.1171999936838528e+01  9.4968044037427887e+01  3.0494126585820760e+02  2.3276597543238463e+01  3.0703640967743553e+02  1.2312721571681571e+02  3.0344802991217545e+01  1.4540698554942810e+02  2.7287538218029649e+01  2.3098882436366486e+00  9.6895639028529938e+00  2.1446729327384310e+02  5.7779791889228299e+01  3.5268349483493253e+01  1.9661766995204985e+02  1.3522512003919156e+01  1.8532322654258135e+02  1.7703236916365950e+02  3.1188114270884395e+01  6.8589266006420386e+00  1.2377828237394397e+02  1.6598553803969722e+02  1.1315422019312566e+01  4.1986779143301639e+01  2.7818814627358171e+02  8.4340320892767636e+01  2.7199919850803707e+02  1.3940555520783116e+01  1.3332175810045285e+02  1.1032362551810898e+02  8.7843678874918751e+00  1.2380229123537779e+01  3.6505831314008375e+01  5.1634375914236145e+01  7.1714328812341279e+01  2.8853362971260839e+00  1.1556018745555559e+01  3.4557157139548376e+00  4.8115157444932812e+01  2.0087926193971992e+02  3.4355413645174093e+02  8.9817691531770336e+00  1.1708106463731600e+01  3.0298744406233106e+02  5.7489114115524984e+00  1.7199297002012830e+02  1.8033875680552453e+02  2.5684285783795717e+03  1.8412159761923408e+02  1.4331336172919807e+01  1.5632424760890464e+01  4.2097250859051655e+01  1.2699446023564879e+02  6.2031750689645582e+02  6.8952705690267783e+02  1.5416901810367230e+02  1.1478428241701202e+01  4.6011211884747830e+01  2.8219429002200318e+01  2.8813299348657505e+01  1.4171184626999178e+01  4.1394131724814429e+02  5.4734877619666049e+00  3.5248418206011655e+02  4.2466575931790253e+01  1.3999878164821970e+01  4.0562863873574298e+02  6.4356973009101907e+01  2.3564034493037518e+01  3.0148193094891664e+00  1.9658197355308598e+01  9.0034197511741894e+01  9.6516398789510696e+00  5.5255917170984638e+01  3.6145656915121793e+02  1.7417241953795889e+02  1.6938545100315746e+01  7.5232567031794169e+00  1.7507749638342463e+02  6.3961069159746316e+01  1.9293459965757884e+03  1.5816170262487782e+01  1.2415962473396830e+01  6.4949283116662277e+00  1.6558668671516859e+01  7.0173730287157543e+00  3.6707581474896472e+02  3.8762917498925481e+02  5.8218061232778870e+00  1.6607677524647573e+02  3.0535517110907307e+01  7.4895980296339800e+01  7.3885405235546173e+01  2.6808714482545220e+01  6.5832069772093851e+00  2.4705822570661778e+02  2.9672460255183802e+02  1.2084396789318198e+01  2.1589849128539313e+02  2.0990977986624029e+02  5.3927201828982348e+01  1.4496295575417398e+02  2.1986100886902889e+02  2.9674755929330910e+01  2.1973886373334295e+02  7.6964838882124639e+01  2.2506238122766089e+02  1.2662032731016744e+01  3.8148114600766365e+02  7.8795662999146160e+01  2.1061686270451651e+02  3.9553925948508999e+02  8.5266351892747764e+01  1.6102432686106003e+01  8.6455474401350774e+00  2.0797655029420525e+02  3.7284688695898410e+02  1.1764736852688878e+02  1.0735468871488298e+02  1.0552239130720526e+01  2.4156694809668330e+01  2.8676588943131378e+02  7.6980524521027547e+01  2.6559264928472436e+02  2.6336313060096387e+02  5.3836259652543993e+02  3.0079081542487961e+02  3.1018185315826168e+00  4.4500298630234116e+00  8.5140756540636730e+01  1.5419633735129949e+02  1.2083144784107080e+01  2.5017489912355790e+00  9.6552575992745755e+00  2.6266732192960916e+01  7.9966923899619555e+00  2.1696778881168015e+02  2.5115491783079403e+02  3.7968931631816457e+02  9.2382287652616153e+00  1.6983631400369887e+01  1.3909581548359000e+01  2.8885344023425108e+02  9.2575059096853209e+01  3.9255461076970977e+00  2.3644733772632489e+02  2.1814387054672954e+02  5.5654814241856450e+01  1.1324103240682913e+02  1.3248718474870196e+02  1.6589398212775967e+02  1.6279741438965566e+01  1.1532149160428322e+02  3.7794807075165409e+00  1.4094305518111995e+02  2.1693103780607865e+02  2.1729133520158439e+02  1.0187168537499975e+01  2.4471534156369000e+01  5.0838530573272802e+00  4.1250275507331402e+00  7.7819328200548242e+01  8.9477215560462199e+01  1.0056582515449080e+02  2.5380784737410386e+02  7.6244655621552681e+01  1.1761121341917560e+02  3.8123642590913938e+01  9.0373414818201041e+01  2.7374838669779082e+00  1.4794204733333126e+02  1.1971973180054674e+02  1.2583203880505916e+01  -1.9597524469984279e+01  7.3028372162171893e+00  2.0658291454010177e+02  3.6041437487807559e+02  3.9416238405860589e+01  2.7846205076283076e+02  3.9094023758749202e+01  2.9162483492100613e+00  1.2952614128758768e+02  5.3491367087839350e+01  8.5600050805663244e+01  5.9470468077237806e+00  1.2765591420660314e+01  2.5437943617493693e+02  3.0260989566339811e+02  4.1521397416703572e+01  3.5369808604065632e+01  1.3119347138873188e+01  1.2329166411960857e+02  1.5071705551663339e+02  1.1845241438855048e+03  7.4378830336540659e+02  2.3375006618485375e+02  9.7759342515418140e+01  8.6082983788226556e+01  1.8924994439891332e+01  9.2739516038809882e+00  1.1418563193401354e+01  1.2395391206113706e+01  4.4933222964268062e+01  1.9199253679936740e+02  1.1267124152718427e+01  2.1658638148432587e+02  5.4823940761868052e+01  9.4626644944493314e+00  7.3218453936952130e+01  1.9150065674999954e+02  6.3958865727454608e+00  9.1619194775649021e+02  3.4549487596432118e+02  2.8525781867979219e+02  5.7633407210188473e+01  4.7420621137989528e+01  2.3933361741932035e+00  2.9238437089132049e+01  2.6313751749913812e+00  1.0779623573313330e+02  3.9566626540488059e+01  6.4472228848556213e+01  9.3176128193937462e+00  1.1309430446114338e+02  3.0028726885636320e+02  1.7150388231558225e+01  1.8830416192789183e+01  2.5859605733279312e+02  2.2380634865860375e+02  7.3093781994563418e+00  1.0910581652687827e+02  3.4553640341341600e+02  1.2218961624730204e+02  8.4093925377264682e+00  4.0719079306560744e+01  1.6764491741840303e+01  8.6638987323335516e+02  1.0061002588753927e+02  1.9675649172106503e+02  6.2948272130811368e+01  1.5796496052666971e+01  1.7744699907206936e+01  4.0304892628300601e+00  4.0320834824240244e+01  1.0077302283086445e+02  8.4858840045443724e+00  5.0906842888065135e+01  1.6462880781459873e+02  2.1174594808397355e+01  5.0883505849901010e+00  8.7670255330077438e+01  1.1268783630005910e+01  1.3394851548652330e+03  1.3156224350054751e+01  4.5615628493726312e+00  3.9954549295219880e+02  5.0647900240707634e+02  2.6596579367209563e+02  5.6713909975803773e+01  2.4886374572591250e+00  2.3118427383356257e+02  9.2759276435663587e+00  1.9238219885134734e+02  4.3430328020894819e+00  2.4227800433288564e+01  1.1250670369514688e+02  2.2248037772107645e+02  3.6107351718732161e+02  1.7291318412140804e+01  3.4638669760497822e+02  3.7288678338633376e+00  7.4889695868090982e+01  1.8417890072392296e+02  2.4139724097233668e+02  2.1134307588211729e+02  2.2879873946909083e+02  1.2790602263448268e+02  1.2333050656114160e+01  1.9596656051184533e+02  2.0930273922467499e+01  2.8264633869551094e+01  2.8321130789511574e+01  3.5602480912073311e+01  2.4114216205801171e+01  4.8359850632820830e+01  5.8601922147661556e+00  7.0728656888081636e+00  1.4674555533800964e+02  1.6730888310210082e+02  2.7151508550165914e+02  1.3699436122721126e+01  5.5758626449739017e+00  3.1533944261523747e+01  1.7069111487190332e+02  3.7623829557934891e+02  4.1375846405844410e+00  8.7888361760598386e+00  2.2779257702260875e+01  8.6367339302227180e+00  2.8872081484093755e+01  6.5817292146857469e+01  2.4125384985833158e+01  1.9070693777028603e+02  4.9420280644994286e+00  1.9849551717523187e+02  4.7092742956538666e+02  3.6531752781854607e+01  2.9044634621180137e+02  1.1953725322149205e+02  1.0055941562397820e+02  8.9499587097891169e+00  7.0161414722230697e+00  3.2981535964439961e+00  1.0314072138798405e+01  5.7422990012200216e+01  5.3543252233347232e+01  1.5602864849182674e+02  2.3253468699275595e+02  1.4220381700328988e+02  2.6184130849050331e+02  8.2292890295231047e+01  1.4871917309984775e+02  2.9763156795454296e+02  2.7714633418935841e+02  5.2444500841022039e+00  9.2987245669873587e+01  1.8314617216339105e+01  1.6172786442497068e+02  2.6350497177572283e+01  3.4425015993638588e+01  6.7459112587245983e+01  1.2239241549762501e+02  2.9790887497266894e+01  3.6691352675596301e+02  3.5007272281492226e+02  1.3465489416098249e+01  8.0190735466733514e+01  3.5878061097046356e+02  7.6122135084848878e+01  1.7557863519426553e+02  3.0022697105182779e+01  8.2317241593669181e+01  3.4993406705960943e+01  3.2261453401062369e+01  1.0785155995808370e+02  1.3671203277964358e+02  3.4416211568260377e+02  1.7293376985404231e+02  1.0121458109174947e+02  8.2610873697060597e+01  2.1694841610118499e+02  1.7896531699388203e+02  2.0895666640569232e+02  1.5315310600112835e+02  5.1633157428400665e+01  1.5494699240546535e+02  2.1732967009788138e+02  2.8877668759992222e+01  3.1270256392578599e+03  2.2194333981381840e+02  3.5914148937142591e+03  2.2712639129924725e+02  2.6666718406722941e+02  9.8835489016927465e+00  3.2014560339811503e+01  1.1420595935638764e+02  1.0912701651014352e+02  1.9733944367498884e+02  9.1846929802514694e+01  9.0009183209533585e+00  3.0238472861361970e+02  2.6751653792099408e+01  1.7239358966267631e+02  2.1654085537762349e+01  2.5690842790215534e+01  2.1531397482770751e+02  6.3316702642898605e+01  4.4185361517200585e+02  8.4123269845315694e+00  9.5524623534955523e+01  5.7087255733286412e+01  1.8477398254924177e+02  3.3683813705481725e+02  2.0612961451058504e+02  2.0549602995895856e+02  2.9662508246055495e+02  1.6742035264940425e+03  9.1440682334250223e+00  3.3289708816618759e+02  7.0781395384924096e+01  1.7510608997909935e+02  1.4009758084547880e+02  1.3070125094466254e+01  4.8252287419245334e+01  1.1582939498331430e+02  3.3483254296846218e+02  9.1418139799623034e+01  8.0366221937736555e+01  8.8911695590393158e+00  4.4886554876643343e+00  1.6772511580272129e+02  1.9230400957947995e+02  2.7567900441007976e+02  1.5860168644777599e+02  5.8354032973267806e+01  6.2135893346342058e+01  1.9557209764895993e+02  1.9908358106314677e+02  2.2869549737313310e+01  1.5322737731684979e+03  5.9249773751630904e+01  1.3830869350902441e+01  7.6260680357315934e+01  2.1257086173305191e+02  3.2764797765668987e+01  1.0004250446836821e+01  4.3858789782111920e+01  2.4487695111278814e+01  5.2312723123294654e+02  6.6019903403998788e+00  1.0139981740989343e+01  5.2104450922119959e+01  1.8480347821780381e+01  3.3723107346564902e+01  4.1285187984059149e+01  8.9366199725927260e+01  5.9268597845860409e+00  1.4714770604381945e+01  3.3234638728822247e+01  3.7761739904453178e+00  2.5442430567676993e+01  1.8262448057439660e+00  8.4710329400216615e+00  2.7086341884766885e+00  2.0333979060170497e+00  2.9170231575712840e+01  2.5722619816171624e+02  9.8124544139891256e+01  1.9910286959517219e+02  8.9067234559123762e+01  1.0772972833707215e+01  3.2581002274746808e+01  4.7110480827143579e+00  1.8521166779382298e+01  2.0259066268769079e+01  3.2850326287480357e+01  1.5188660061879395e+02  1.3335433087396032e+01  1.2779280783998477e+01  1.3007810248907507e+01  1.0961328095943262e+01  8.4988673223731190e+00  9.1301089567270122e+00  1.1503549031404116e+01  1.1096642098973453e+01  3.6437998490256001e+02  1.1873878304592836e+01  4.2404463277872937e+00  1.4577263748495309e+01  1.0156298026659093e+02  5.2224083232654857e+02  3.4871800875531443e+02  1.7365850568892085e+02  1.9072649064416723e+02  9.1375077297037191e+00  1.3955869700947389e+02  4.5983031993308039e+00  7.4777527245563945e+01  3.0947022189682031e+02  7.5273293903684447e+01  2.6800948774320108e+02  3.7484808646854752e+01  1.0787226831215696e+01  5.2433108499780928e+02  6.2357434276949652e+02  9.5197010850521799e+00  2.0518708366476048e+02  2.2560624570299851e+02  2.3491862638476621e+02  1.4493004774052983e+02  3.6544084870046490e+01  1.0611614165236393e+01  1.1741168137284211e+01  1.2082366026423403e+01  3.5941226953128972e+02  2.7356291550804076e+02  3.3208631212718926e+00  1.8721069008150729e+02  1.9453492739530819e+02  2.3758645244350567e+00  9.4100488733041317e+01  1.1474557459920369e+01  5.6632576632130245e+01  4.9175618837461066e+01  1.5146208963291193e+02  9.0112503250491727e+01  1.3974874596570258e+01  5.5105625158975151e+00  1.0997468215783700e+01  1.6603683677830298e+02  1.0677907515182378e+02  1.5503356124167766e+02  1.8072792742687760e+01  1.3172444351344808e+02  1.6846659655958331e+02  2.0346401924077108e+02  8.5944843572794412e+00  1.3341104303237785e+02  5.4150499679423403e+00  3.7890834004420675e+01  1.7130717089294689e+02  3.0783977474948500e+01  8.7112642638033492e+01  1.2953176982388223e+02  4.9080769933540047e+00  4.0979377351274991e+02  3.1982079469410354e+02  1.2315049217916290e+02  1.1577587795729693e+02  5.8893982354743059e+01  3.6102558723830384e+01  2.2974080350205256e+01  9.5056708385534449e+01  5.2656860696773137e+01  4.0766678590628684e+00  3.7261795132314205e+02  3.0863878503985156e+01  1.1517972267263198e+02  3.0510053774419657e+02  4.0918103313085140e+01  1.0429909276273061e+02  3.7376226725795254e+02  6.2167843514774333e+01  1.2169594585324278e+03  8.1948944218880058e+02  3.3574839572003407e+02  4.7664645548115736e+01  3.5846333030259285e+00  7.2178291998753981e+00  4.4793851356348915e+00  2.0979621128720403e+01  2.9067852515066519e+01  1.3100950840452251e+02  3.4164299028848966e+01  7.5332974104315653e+01  1.8955555172826791e+02  5.1147832879897720e+01  3.0381455620657196e+01  2.7903427951223335e+01  1.5439311191622278e+03  1.0572029453683410e+01  8.6885787393532112e+00  5.3129620954680711e+01  2.8956529426764456e+02  7.1357858167679931e+00  1.0343164323761073e+01  8.0237269943763341e+00  4.3478927817967303e+00  1.2002896478825729e+01  1.7665938471279237e+03  3.4213578915438731e+01  3.0843266649811403e+02  1.2888261522144974e+01  4.0938607969634823e+01  4.9514235944212366e+01  6.2528133609036381e+01  1.1567843727427071e+01  2.4122328926381358e+00  3.4275469011910559e+01  3.6408215593298229e+02  3.3040850599610587e+02  2.3568578683006709e+02  1.7523971280783059e+01  1.7211557256089043e+02  1.7616026674562470e+01  3.1232197283860490e+01  4.5976566467654266e+01  7.7470352208559818e+00  6.2809732204074805e+01  7.1544150967400109e+00  2.9126343119897564e+00  1.7776487580738763e+01  9.6769300610844439e+01  7.6135932813077673e+01  1.4340352035961101e+02  1.3358213716451289e+02  5.3176731620431283e+01  6.8407936520853838e+01  2.0590255354398430e+01  8.8313865481653444e+00  5.3844586832400942e+00  3.2480538839146140e+00  1.4515732313758685e+01  1.2984444382090034e+01  1.2455250598061124e+01  3.9462507950373919e+01  2.4378459273175426e+02  1.3251407023365957e+02  2.1594988673485895e+02  2.0984917229631910e+02  3.1699557079343062e+01  3.5900125109435990e+01  1.9464926941023256e+02  1.8636796782135985e+02  1.8471769704103377e+02  1.1149207566569871e+01  3.1101773352573652e+00  2.3022968478441157e+02  2.7723987950393227e+00  3.3218304686198605e+00  5.4567675059489420e+02  1.1310119276684734e+03  2.9616185010938912e+03  1.3499463266374603e+01  1.5585302196479926e+01  1.4650707023158789e+01  1.5035614112996244e+01  1.5621010362567477e+01  1.2856010223343796e+01  1.0119857750916571e+01  4.3412837190541161e+01  4.4040149718424054e+01  9.5893802274334963e+00  2.6573927463726210e+02  1.0774103939104513e+01  2.4099742138318192e+01  6.8465643808758179e+00  1.7663736168642782e+01  1.0841679154889501e+02  1.2494183845571358e+02  1.6736233859315598e+02  8.4452190950194193e+01  1.1667339167582817e+01  1.6615301019037523e+02  5.6051230886523795e+00  1.7347542239366166e+02  2.2599701733121695e+01  7.8967731854607184e+00  1.1548537576644945e+02  2.2621990913730496e+01  </DataArray> 
</PointData> 
</Piece>
</UnstructuredGrid>
</VTKFile>