<?xml version="1.0"?>
<VTKFile type="UnstructuredGrid"  version="0.1"  >
<UnstructuredGrid>
<Piece  NumberOfPoints="758" NumberOfCells="1386">
<Points>
<DataArray  type="Float64"  NumberOfComponents="3"  format="ascii">-1.570796326794897 3.048 0  -1.570796326794897 0 0  1.570796326794897 0 0  1.570796326794897 3.048 0  0 0 0  0 3.048 0  -1.570796326794897 1.524 0  1.570796326794897 1.524 0  -0.04609926118424437 1.524 0  0.7853981633974483 0 0  0.7623485328053261 2.262242601661362 0  -0.7853981633974483 0 0  -0.7853981633974483 3.048 0  0.392699081698724 0.7745759241961347 0  -1.570796326794897 0.762 0  -0.8084477939895706 2.0955 0  -0.68277245543452 0.8915343570675713 0  0.7853981633974483 3.048 0  0.778743707341909 1.468410948960538 0  2.780093748954961e-16 2.285302774973185 0  -1.570796326794897 2.286 0  1.570796326794897 0.762 0  1.570796326794897 2.286 0  -0.9375370967763674 1.47348297960658 0  0.9831575747762593 0.9003629142671278 0  -0.3926990816987241 0.4064697549061488 0  1.177419588818055 1.905 0  0.3692901340097942 1.880893989147954 0  -0.4920225169641509 2.564371687128368 0  0.3926990816987241 3.048 0  1.178097245096172 0 0  1.155705348811136 2.643920532523289 0  -1.178097245096172 3.048 0  -1.178097245096172 0 0  -0.1391296372266528 0.8873724190154949 0  -1.10527745318919 2.528282743051346 0  -0.9817477042468103 0.4742759268549471 0  -0.3416666987802651 1.923944646262223 0  -1.570796326794897 1.905 0  -1.156555306160469 1.030861936336814 0  0.7648449098493205 0.4764142032227 0  0.3926990816987241 0 0  -0.4820376416180818 1.326151321396512 0  0.06374421723344185 0.4545169930886408 0  0.1972735722393064 1.163324878565267 0  0.3900417218314142 2.566922767651637 0  1.570796326794897 0.381 0  1.188877612935585 1.295195418509834 0  1.179914028402171 0.5308585702661928 0  0.7660075594126428 1.865233039449035 0  0.6330293131838399 1.095171663968746 0  -1.201232463242587 2.144287146570887 0  -0.3926990816987241 0 0  -0.3926990816987241 3.048 0  1.178097245096172 3.048 0  0.7684409382397209 2.649499271873753 0  -1.236954997304436 1.7145 0  -0.1088573452899617 2.666651387486592 0  -1.570796326794897 1.143 0  -1.570796326794897 0.381 0  1.570796326794897 1.143 0  1.570796326794897 1.905 0  1.570796326794897 2.667 0  -1.570796326794897 2.667 0  -0.6730839067294777 1.743003792473746 0  1.199831389396789 2.275437921225198 0  0.3936837537618041 1.495643752599615 0  0.01539369169800942 1.928544709491661 0  0.4156551272669651 0.4219033286010089 0  0.3401546043708642 2.225103550856524 0  -0.3379897306391274 2.262671266279809 0  -1.23624174049596 0.7000907110925838 0  -1.265224057170889 1.360131453617764 0  -0.1224339018241312 1.210043725539656 0  1.289286200625578 0.9918698881707442 0  -0.7751142346211329 1.197848666814478 0  1.003546186550495 0.2660297686099683 0  0.1963495408493621 2.808538634159524 0  -0.8079023568959116 2.703551618159924 0  -0.3480226984353056 1.610059855391589 0  1.075147893506229 1.598068412087719 0  -0.8290627893979112 2.399544545867518 0  0.6965048925255637 0.7972100472372819 0  -1.257765094876752 0.3107645483825858 0  -0.6724835324263325 0.5684215760013651 0  -0.3995059642389676 0.7173610149075536 0  0.9136951972244611 1.187564504803626 0  -0.964259350608907 0.8095514380783081 0  -0.7565990314517038 0.2897049735129544 0  -0.9603859887840651 1.834914433810327 0  -0.1457055965762301 0.2521630699436873 0  0.1963495408493621 0.2041911848053476 0  0.6241974196550791 0.231695999252114 0  -0.4098815011312292 1.029160072548571 0  0.9592800715482012 2.452820690856482 0  0.9648684169153161 2.840751931000357 0  0.5890486225480862 3.048 0  0.164631037784102 1.698913854044779 0  0.5664480837073581 2.070920238540226 0  1.374107957806476 1.7145 0  0.9861079629544779 2.102471438422718 0  -1.374446785945534 3.048 0  -1.288827800789186 2.762781313597598 0  1.353232957571468 2.835634774483438 0  1.302158670506274 0.2650078124691045 0  0.1394669809465775 0.8907702620243092 0  -0.5631487221059602 2.830992231257464 0  1.372837635547072 2.483038902756259 0  -0.1493395228831287 0.618617259260858 0  -1.32327048447753 2.378769394323546 0  0.56080204725298 1.699622905297025 0  1.570796326794897 2.0955 0  0.5403456747786348 2.786446773498672 0  -0.9817477042468103 0 0  -0.5847039960246873 2.326882432521036 0  0.1225428891326576 2.526494255738436 0  -0.9817477042468103 3.048 0  -0.5522901559753841 2.071668786267058 0  -1.370864794258017 0.9075071715671403 0  -1.043891045637083 1.250611220450313 0  -0.1652643923634778 2.09141301924679 0  -1.044446740946883 2.764982067459552 0  -0.1610370079820225 1.763280243096074 0  -0.3136912237752232 2.810498886211121 0  0.5400974078002052 2.370472734822523 0  -0.7009161718414544 1.427243880175582 0  0.902907438200502 0.6735032943420574 0  -0.9879196222361604 0.2371379634274736 0  1.319268546233604 0.7412771512308228 0  0.5578373583610097 0.608241627784878 0  0.5756483102040615 1.332636919938113 0  -0.5281701577409 0.2032348774530744 0  -0.266729509930448 2.489223923247521 0  -1.570796326794897 0.5715 0  -0.2430656531629531 1.405631921096758 0  0.253622337931223 0.5884397663452474 0  1.284044721043478 1.50372037617638 0  1.570796326794897 1.3335 0  -0.9904333867980613 2.235882060371517 0  0.9871146764618406 1.395690276854986 0  -1.374446785945534 0 0  0.3981951765262902 1.020833864419675 0  0.1670583512016766 1.405384478716078 0  -1.330327693484763 1.938638984813805 0  0.2106653067452682 2.040805097078886 0  1.570796326794897 0.5715 0  1.334822181490566 2.081373939821734 0  -0.9303227889097604 1.033236710715967 0  -1.34639228476592 1.150776798768373 0  -1.570796326794897 0.1905 0  1.106697207481837 1.099709897393925 0  0.4137866939027022 0.2104288000383385 0  -1.570796326794897 2.0955 0  0.9761377489246634 0.4754251272674608 0  1.377108465632662 0.4605024587280874 0  1.108114944719677 0.7297638044096917 0  0.3695908229138113 1.285681859811955 0  0.9799112840676307 1.800306505551499 0  -0.001696842075803034 1.042028929293442 0  1.366537356420357 1.185723700290463 0  -1.385029840108318 0.47625 0  0.05842649915411911 0.6874537157920781 0  -1.183268988745763 0.4997334438341218 0  -0.6073502281622543 1.081347079085406 0  -1.026941765261019 2.031536576622642 0  -1.570796326794897 2.8575 0  0.8159726599830506 1.011928543199529 0  0.7652782693277244 2.849245002237192 0  -0.5252326280373281 1.520125074885265 0  0.7648326174724897 2.063743853392348 0  0.757099741434616 1.666331708950521 0  -0.1963495408493621 3.048 0  -0.005410422648647092 2.843333256403111 0  -1.395368347654653 2.19075 0  1.374446785945534 0 0  0.9817477042468103 3.048 0  0.1963495408493621 0 0  -0.1963495408493621 0 0  0.5890486225480862 0 0  0.1963495408493621 3.048 0  0.9817477042468103 0 0  1.374446785945534 3.048 0  -0.5890486225480862 3.048 0  -0.5890486225480862 0 0  -0.06865319188571758 2.471928549109083 0  1.159049337209348 2.838090892449816 0  0.5817075150535711 2.596909954318943 0  0.7656515661107315 2.455866896253367 0  0.9620790410056582 2.647119292933887 0  0.3676829480103987 1.68739481709134 0  -0.8886101495223063 2.878912500124773 0  -0.3317793704126089 0.1873756770788371 0  -1.383208664444332 2.577695923010364 0  -1.043597917648523 1.648216005744782 0  -1.362178343413552 1.546177620526679 0  -1.570796326794897 1.7145 0  -0.8462722504471433 1.648434957877788 0  -0.588076822054871 0.3899352838051667 0  1.570796326794897 2.8575 0  -1.570796326794897 0.9525 0  1.570796326794897 0.1905 0  1.570796326794897 1.7145 0  1.570796326794897 0.9525 0  -1.570796326794897 1.3335 0  1.570796326794897 2.4765 0  -1.570796326794897 2.4765 0  0.8103777117362174 0.287468585434799 0  -1.145334531235929 1.881885620422454 0  -0.8620560674467429 0.6361265362229395 0  -0.321688879263093 1.207848147265888 0  -0.7798551871678058 1.904240998338365 0  -0.4724954359209014 1.769587110195458 0  -0.667402576232105 2.495985359319255 0  0.5365063314111709 0.8945566719544227 0  0.1855702280441107 2.342745654422604 0  0.55510120733165 1.88540118775351 0  1.188295809121239 2.460939894898248 0  1.38587897409014 2.260870763688798 0  1.383978812419919 1.901097375082534 0  -0.2265735189171196 1.049795314962436 0  0.7387890113368257 1.246392780742437 0  0.5763234466275948 1.516457524623135 0  -0.203279258075353 0.4348372558382012 0  -1.179202350299698 1.523245956950107 0  -1.151844216720993 2.318990544544152 0  -1.410806081599612 0.6547540757597369 0  0.04190096621848406 2.108399609871347 0  0.5925649981629265 0.4343292987553075 0  0.2371113691258682 0.4102816185532077 0  1.334103818253725 2.657728219912091 0  0.9405077369493808 2.275181409651143 0  -0.633962040105568 2.669303984283053 0  -0.6045614816381242 1.904349918307267 0  1.159697673803787 2.079238591118184 0  -0.004643801590645341 1.347662554528907 0  0.3691400131247499 2.395423267764724 0  0.3855005143298051 2.055603978165229 0  0.01839821075864462 0.1788084577298442 0  -0.9568120219060965 2.61629404172056 0  0.1783135820912846 1.871116340262054 0  0.3649950158263953 2.745288921627024 0  -0.3142054567155264 0.5671999812317062 0  -0.4933549623779417 0.564740705097546 0  0.06092775470575962 2.685867440722903 0  -0.1801827362748675 2.337517890002858 0  -1.063355415037434 0.6386189748554 0  -1.205242865599393 0.8676070232612285 0  -0.4176020549597784 2.412196127179313 0  -0.3347051678178828 2.093252344225509 0  -1.427772711006951 0.2857500000000001 0  0.8835729338221293 0.1362887052191026 0  -0.6831011505337878 0.1389086130988801 0  -1.403875662049666 1.77648180985222 0  1.394165436236593 1.362588987767805 0  -0.5007942298153729 0.8700626692351643 0  -0.6093220848169366 0.7321530406295067 0  0.007534593095922887 1.760126887057542 0  -1.276272015520854 0.140425968067263 0  -0.7270478511000733 2.847016806985676 0  1.436331331726002 0.85725 0  -0.1770320080670663 1.927167796173981 0  0.7200726153501196 0.6345534912379586 0  -1.099983122078282 0.3577316115390257 0  0.2324759135153202 2.648405702327079 0  0.9054371869972004 1.582409569434113 0  0.5000672234640285 1.188708149930449 0  -0.340793734207542
[...]
<PointData  Scalars="Elastic Energy"> 
<DataArray  type="Float64"  Name="Elastic Energy"  format="ascii">5.8461070804693609e+00  1.8964822203049412e+01  1.8962692799059202e+01  5.7506866869310711e+00  3.4454077367619057e+01  1.0806277524650859e+03  5.8389157803794243e+00  5.8543373494390840e+00  9.8589899465754822e+00  7.7581780099629916e-01  1.8281234767913443e+01  7.9436669303922336e-01  1.0229346725725928e+02  8.2375848041944764e+00  1.2098738332532502e+01  6.3035753108863783e+00  2.5284224675313931e+00  1.0868802225154573e+02  3.2975526105090527e+00  8.6026637381165827e+01  1.6815089800516889e+00  1.2145843727514345e+01  1.6959452988991215e+00  2.9934401539010023e+00  3.6460010403454550e+00  1.0820439543725627e+01  2.8579112796040471e+00  1.0382380334890279e+01  6.1940209667729675e+01  4.3838661647524141e+01  1.1914426028325689e+01  4.1166144430936260e+00  1.2183707875136918e+01  1.1998571292007327e+01  1.3667760263586899e+01  4.5830946493477160e+00  4.6939204525699152e+00  1.2763230884472062e+01  3.3461526876420491e+00  5.8075904529226126e+00  1.8709828862157427e+00  1.2098539309693541e+01  4.5923568775097499e+00  2.1797371650955657e+01  1.0094892295500106e+01  3.5699077442175671e+01  1.5652368006334843e+01  5.0016828902749149e+00  9.0686778189078208e+00  4.5792564066755670e+00  3.2172694322041888e+00  2.3047907199843203e+00  1.2003862607150621e+01  4.5842770775905443e+01  1.1525250073558070e+01  8.4663073738989283e+01  3.6473864530914684e+00  1.6826831807654980e+02  8.9131044013898055e+00  1.5688971843715496e+01  8.8192162610007525e+00  3.3672842214630707e+00  1.7648558457507477e+00  1.6866137869347031e+00  4.6557988013564424e+00  2.2778573470164707e+00  5.3505303143203733e+00  1.4537278853225866e+01  9.6281520506538545e+00  5.1642260776854670e+01  5.9273276618987978e+01  9.1087314323002566e+00  5.4376892651464006e+00  1.1062912217335777e+01  8.0181866064902874e+00  2.7297540121647677e+00  6.0244178426303447e+00  9.5866964564648455e+01  9.8328301358370908e+01  5.9369163552545237e+00  3.2131853254769029e+00  2.4331535681337911e+01  2.3386930571017954e+00  1.2544033622652917e+01  2.3386623158641426e+00  8.3819838007563394e+00  2.8731495425772429e+00  3.5259127040422902e+00  1.8608452294532125e+00  2.9553555491973760e+00  2.3807703054537406e+01  2.2253026249959241e+01  2.8113631311674268e+00  6.4403332080041187e+00  1.2074429699569555e+01  6.9612443113950377e+01  2.9979980072623523e+01  8.6172817419632732e+00  1.6879420142172997e+01  4.1923882515152222e+00  3.1393558242896034e+00  2.2337605267950855e+00  1.6434276974094302e+00  1.5757976086897689e+00  1.3740809751229689e+01  1.3686783725157060e+01  4.0446371713770198e+01  1.5987629667157073e+00  1.7077835329314805e+01  1.8872118616737994e+00  4.8034534315006931e+00  2.4007970792322353e+00  4.1700643192456745e+01  5.6742308438857654e+00  5.1841459211673204e+01  1.2885849801769467e+02  9.8760656193765570e+01  1.7841960405429031e+01  9.6926865182436313e+00  3.7113241778322106e+00  3.3504260646768756e+01  2.6544780617362033e+01  9.3985845897346678e+00  3.7265811595343976e+01  6.5675993638539268e+01  3.4618468491439716e+00  2.8782901898378408e+00  5.6049381680799693e+00  1.0241978052799926e+01  4.3722594643250350e+00  3.8394269755713912e+00  5.3097775526639719e+00  4.8569893396143442e+01  1.3721882750946305e+01  7.7639421168793552e+00  1.4446687130308378e+01  4.8399997475944527e+00  7.2817263038075506e+00  3.9997557305830695e+00  3.1437258197535973e+00  1.6622669902641643e+01  6.7148821313474265e+00  9.1325028171148990e+00  3.0229638133270389e+00  2.6600901482219225e+01  1.3816238491304391e+01  2.4886881157555041e+00  2.9739955927542043e+00  7.5883373328253860e+00  1.6587454369039733e+01  4.8115573332033499e+00  1.0447837366060044e+01  2.3933722422768673e+00  4.6044670342688416e+00  1.3443001668526643e+01  6.3599401961223894e+00  6.0852701706949350e+00  2.8929632991767122e+00  1.3225386006438494e+01  7.5365460806232925e+00  1.3432774567311490e+01  1.7540879151708683e+01  9.3901123345138409e+00  3.4475462814490530e+00  2.7476973566975134e+00  2.9114571875680091e+00  2.4239628392197670e+00  1.1216513920558077e+02  4.3926505001001237e+00  7.2486996657520448e+00  3.8868657267215010e+00  1.6215300761321728e+02  2.3026202169940510e+02  2.0990101310971125e+00  1.6667794904265293e+01  9.7589399719035100e+01  2.7230547243314007e+01  2.7330374651064673e+01  1.7749262907816408e+00  1.4759988222785003e+02  5.7716554730680345e+00  2.1811487142721648e+00  3.1897073350079754e+01  1.8370195229829585e+00  1.3968573494006355e+02  8.2717718213656131e+00  7.8868634805551821e+01  4.4228203955611505e+01  3.3014226139830697e+01  6.2076962943078993e+00  1.0748301220216580e+02  1.4908675695693859e+01  1.6058116494032433e+00  3.0537514534591765e+00  5.1048911495865150e+00  4.5211142044868939e+00  3.3300303166340774e+00  3.8169489338160720e+00  2.9834665906871711e+00  1.0496564486597151e+01  1.6512257216381204e+01  4.5239322468209053e+00  1.0581432377864445e+01  7.3417479566739408e+00  1.3922891554077590e+00  1.3855453277672076e+00  2.1893021148193768e+00  2.8230075504264547e+00  2.4327132119373251e+00  7.2791493937688374e+00  4.7152853036969784e+00  6.2871106395057819e+00  7.0546331928869250e+01  4.4336037631755962e+00  7.0751263898288357e+01  7.9816190496172670e+00  2.3064247292929161e+00  1.9553816675884621e+00  3.2654240036957356e+00  1.0276598899589905e+01  2.8692782119174787e+00  4.1181942333361752e+00  1.8497704917732264e+01  3.9829461649573652e+00  2.4394012772760187e+00  1.2196629448064591e+01  4.1590303615311626e+01  3.6810192613671862e+00  1.7736109925134102e+01  2.0338247671167133e+00  5.9228844831492147e+00  8.6799767091159879e+01  7.2807782835709336e+00  2.5109713145091774e+00  1.1075279049679724e+01  6.0660828614275637e+01  2.4632251737004083e+01  2.7139166998263399e+01  3.0551052636218273e+01  1.1400427029978562e+01  1.8394512823247389e+01  1.2565318929652328e+01  6.2222380767757386e+00  1.9829061884594546e+02  6.8708685556242656e+01  5.8212327216022794e+00  7.4791927808456276e+00  6.4509188912370576e+01  3.1484834374404969e+01  1.5603560409123494e+01  3.0452098913382466e+00  1.3827003137082092e+00  3.9367267950191533e+00  6.4664206545206122e+00  5.0976895124885093e+00  3.2939613366829823e+00  9.7722128637000338e+00  1.3101289128152802e+01  1.0653154601860781e+02  1.0773878796634289e+01  1.3973669490504296e+01  2.0353639789209788e+00  8.2375026393400255e+00  7.2869049747251395e+01  3.1090361635714361e+00  4.5194727127112824e+00  3.0017491842772635e+01  3.5970402964497739e+00  3.1407716811286592e+00  2.0105216683505689e+00  1.3811383483565603e+01  2.0296009981841401e+01  3.4673256761122970e+00  2.4321556285222670e+00  2.9067464554006501e+00  5.9257850609386820e+00  5.5587135251213153e+00  8.0120093139916158e+00  8.3300937213306963e+00  4.0680950413811932e+00  3.9381946040128049e+00  6.0844632302425383e+00  8.0728480883168796e+00  8.5495274531630461e+00  2.0386003211919501e+00  9.3259610077934312e+00  1.3001327799540316e+01  2.3032016843873055e+00  7.7088859014725086e+00  9.7700896654419338e+01  9.2286022878506024e+00  3.2917848904493603e+01  6.4232519997473414e+00  7.4175528301102016e+00  1.2023528053353184e+01  4.8138249892047629e+00  8.8085061023556293e+00  1.0267384417117553e+01  5.1044810703248665e+01  2.2807824059009070e+00  5.4236126679068928e+00  3.9822429864743154e+00  9.8021224060401142e+00  1.2594048296918265e+01  2.6131760995931561e+00  5.6188258541164295e+01  4.1983577293331592e+01  1.1510199771833010e+01  9.3166601237237305e+00  2.3694445698312960e+00  3.2849224067168254e+00  2.1784521220450261e+00  1.8013304425640186e+00  2.7185685487330038e+00  3.2189797061251610e+00  3.7970959015651773e+00  4.8643434949533910e+00  1.3083522607141941e+01  1.5589459904883816e+01  1.5376428050210828e+01  2.0774935120694373e+01  2.3192694847554591e+01  1.5649156917588613e+01  2.8778857672806173e+00  9.9004431791508214e+00  7.8054929833277669e+00  3.9189894716346236e+00  2.6922082448858102e+00  5.6876301047580204e+00  1.9310689386488048e+02  9.2848916400463537e+00  4.6436336269706375e+00  2.8378460576402693e+00  4.1588715692720712e+01  5.7447655832445683e+00  5.4918657933346068e+01  3.1942289000544877e+00  2.2919523122573189e+01  1.6924187888049634e+01  6.1878027707660967e+00  1.1267586544267969e+00  9.7423954861969424e+00  1.6441421701054260e+01  7.7143530639445945e+00  2.5955998239503884e+01  1.5993936235965998e+00  5.1106913891348370e+01  5.6200148212340160e+01  1.6727600908356479e+01  1.4819680954760692e+01  3.6112169835158756e+00  1.1527722585853702e+01  1.2119384506036432e+01  7.8732342845042638e+00  1.9939249106498309e+00  1.8353622097122733e+00  2.7883040950737379e+00  6.5423180686541054e+00  4.1354756701449062e+01  1.2856821017648446e+02  8.0293399428871169e+01  1.9851708515729229e+01  6.9645550097637976e+00  4.0444681630200037e+01  7.1653751265518215e+00  2.8618885319624359e+00  5.7804052595461384e+00  1.8366340811302528e+01  3.4142469181518011e+00  6.5532450345804421e+00  2.8297886202007492e+00  4.7568734577295881e+00  7.8130710470930884e+00  1.1823697817837279e+02  1.4572754077062342e+00  1.9082092970908986e+00  2.8209846220556702e+00  6.3108714096772136e+00  2.0470153696196835e+01  1.1118308026461008e+01  2.6162337445150019e+00  5.0466375868066411e+00  4.4113476389173432e+00  1.4274626804231543e+01  1.3363828845178014e+00  1.5148136741071609e+00  9.1780729388411942e+01  9.1619891648861920e+00  2.9910388630726157e+01  4.1693805737499574e+01  3.2877646769825000e+00  2.1713798180982815e+00  1.7432652869922953e+00  2.2541194223632819e+00  3.8951025629444969e+00  3.8786451788697609e+00  8.2706359749820866e+00  4.8887874229545183e+00  5.0089694955386115e+00  6.4964187800818944e+00  1.2730912141340951e+01  1.9426568298441826e+00  4.3638694437405363e+01  9.8301252048072403e+00  8.9045460407401915e+00  2.5387491949250416e+00  3.2756541776651034e+00  1.2188591012317129e+01  1.1319187067006721e+01  4.9711960468362868e+00  7.3823120383122486e+01  3.0621060673526754e+00  6.0621273411996690e+01  6.6405565081959796e+00  1.0625717901458952e+01  2.5312187817217389e+01  7.6476663719570617e+00  1.9618607698338089e+01  6.1670685826546014e+00  1.8329986760823765e+01  2.7318440579895285e+00  2.6933289081169551e+00  6.8496786803515718e+01  1.9100215146077792e+02  2.0836307090374461e+01  1.0350313211068208e+01  2.0122979684902900e+00  2.2066269694948866e+00  9.6555031357987406e+00  7.8168761450222144e+00  4.5169385470112935e+01  7.2536559949246055e+01  6.7588479916094485e+01  4.3544331899220179e+00  3.1916007996399687e+00  2.6129880023474024e+00  3.3720774416275541e+00  5.4558497288529111e+01  4.5216445225851976e+00  3.4834117836649230e+00  9.9008702612274284e+00  1.9186759811802818e+00  5.5925294730326506e+01  6.6552371136151063e+00  4.4339316547948000e+00  3.3211801678885209e+00  2.7234269218361349e+00  8.8476683696208678e+00  7.2540471682017351e+00  6.7130493898076784e+00  5.3070506738803736e+01  2.4578637297268241e+01  1.0081894549674113e+01  1.1747561432267741e+01  3.4186741554083344e+00  1.2522477090993686e+01  3.7622484483611065e+00  3.1106757103926639e+00  2.1781888004893659e+00  2.1139592984406037e+00  3.1540688645572650e+00  1.3518377169176336e+01  6.9683653136348678e+00  1.0666104034942165e+00  1.1222364026758031e+02  5.3187377181972955e+01  3.8746237808525173e+01  2.5667973311012737e+00  7.5386976718356316e+00  4.4621573331272133e+00  2.3288219041600815e+00  2.7210949975995211e+00  4.3133643173279070e+00  8.2427450805832283e+00  7.0064998342204285e+00  4.3338989198987905e+00  4.2891986885281144e+00  1.9560960826962457e+01  5.3176683006114331e+02  1.8488436003554728e+01  1.3111878210465306e+01  6.7834520766646751e+00  3.4424525277624993e+00  6.5959779615523182e+00  1.1387701965797774e+01  2.5884260027408801e+00  4.8127863976049863e+00  9.2060688236344301e+00  9.2851628141763829e+00  1.9867454316753048e+00  8.3608192325931299e+00  4.7648483777399804e+00  5.3922590821234762e+00  1.9323325932661376e+01  8.7369618397942261e+00  1.4916910810662350e+02  4.0568419909903163e+01  3.8515503264209512e+00  1.7857809584775453e+01  2.9932427585355721e+00  1.6737384352396447e+01  1.4164611864116937e+01  3.6626136786711328e+01  1.2199555038740971e+01  3.0860326271510746e+02  6.9173327932043485e+00  2.0004180268744993e+00  1.7090391037993996e+01  2.8263901170556336e+00  3.4521526489454897e+00  1.3918217576136877e+01  4.2327642245549004e+00  3.5052502514883779e+00  1.6128781440338688e+01  3.9181773027673477e+00  6.1127108926288230e+01  1.7476148602460062e+00  6.5572420390448407e+00  3.2388707241942352e+00  2.9695352556751691e+00  1.8345877503220709e+01  1.7181946488719902e+01  3.3257345386789940e+00  2.1737652404577624e+01  3.0095752447997657e+00  2.9605206508551989e+00  3.8522871795538172e+00  4.6687484806775119e+00  1.6249285940407756e+01  6.3064773902577365e+00  2.5217626808246955e+01  1.0492625146598618e+01  6.1094397535998269e+01  5.3779171565704624e+00  4.2508261838694779e+00  9.4478167170107824e+01  1.4689574731666870e+00  9.7080568328126500e+00  4.4003779176526514e+00  6.1727097041595563e+01  2.9880876875362201e+00  5.1857279775258327e+00  4.8841479475664382e+00  3.6047450075915384e+00  7.9593349694185477e+01  1.0722547641835101e+01  8.9477269855641701e+00  7.7825288362296785e+00  4.6798040894158088e+00  5.6193720647637164e+00  3.4908450456463447e+00  6.9107381269640076e+00  5.5227613493552594e+00  1.9562651844826476e+01  5.4451443359781750e+00  1.9257299728150826e+01  2.5765107915538357e+00  1.9483077603691219e+00  1.4682218103960766e+01  5.2957090316304631e+00  5.8456617734626057e+00  5.4801001551202519e+00  1.2617868589910971e+02  1.2434639217061462e+02  3.1459944574598455e+00  1.4684278467612158e+01  1.4824366555799118e+01  1.3518671207097782e+01  1.3919913855750291e+01  1.1654152131732488e+01  7.9993509070204052e+00  8.5514897775792011e+00  6.2720145448793714e+00  9.2463713810343009e+00  9.5446538455615197e+00  7.7168433829019889e+01  1.2994786843941625e+01  3.6821495945801050e+00  1.5735987642680931e+00  1.8067780245947394e+00  2.8798804427379734e+00  2.5180298562990449e+00  1.1457184107122300e+01  6.5475037009001671e+00  8.3187955557900395e+00  2.4394796255079241e+00  1.3741252057305919e+01  4.5469540930459232e+01  1.5173152462113537e+00  4.4541187258261319e+00  1.3669981174873044e+01  1.8180993305838936e+02  2.0995257894361552e+02  8.4045862084272045e+00  3.0560483037099413e+00  2.7838027749017167e+00  2.8163341595770910e+00  4.4057401249794097e+01  5.6282168505608666e+01  3.9260731487931553e+00  1.6520482476568379e+01  1.8110845278010597e+01  1.0679080490501276e+01  4.9556658072880939e+00  3.9857539030685527e+00  7.1964897199602254e+00  3.6967674187242081e+00  6.6288709983304335e+00  4.2947180344003426e+00  5.8004317694600447e+00  9.4366399005990136e+00  9.9864198274092892e+00  3.1402027028463908e+00  2.4396949862385688e+00  3.6894893899107721e+00  4.0414369744565191e+00  2.9187908383231229e+00  2.6345835653139047e+00  2.7670138590465116e+00  3.4951984898690625e+00  9.5413180714114702e+01  1.1139924373937577e+01  3.0231296897205624e+00  5.3972306155665429e+01  1.0507790594211338e+02  2.0208273877892884e+00  8.5457453545138726e+00  6.4620474416966420e+00  9.5740863732365682e+00  5.4845534155013995e+00  4.2830627200879041e+00  3.7115384591859093e+00  1.5086742679209837e+00  1.1359557855749813e+02  8.7192697805836474e+01  6.5720179406885242e+00  3.8928690669533697e+00  3.9591248719482692e+00  5.0660038720473048e+00  4.3269310675325352e+00  3.7860615694293607e+00  5.4358783315912467e+00  6.5760215271533529e+00  1.4673169319374086e+00  1.9812209792742361e+00  1.2266354308064564e+01  1.3708698311534683e+01  3.4519812217775256e+00  3.9124521996038792e+00  6.6876808638357062e+01  1.9410382112001034e+01  2.1827288975302150e+00  2.2913670118110150e+00  6.9122730106810323e+01  2.8657451268770288e+01  5.2442872119374524e+00  1.0809095833295151e+01  2.9151094646464464e+00  5.6251951021160629e+00  3.3931558741488324e+01  9.1337228663867847e+01  1.2301413026504622e+02  4.5413988401313262e+01  1.3950465723064263e+00  3.9852462930095548e+01  3.4075019045098962e+01  1.9780272347734179e+01  3.2810280551043132e+02  1.4890465919345967e+01  3.6337528885876624e-01  4.0900922203598434e+01  1.0440417937690843e+02  8.7974434971556761e+00  1.4689091515020198e+01  3.2716797723699120e-01  2.7876763089324630e+00  1.8180818480394720e+01  4.6815602856753946e+00  6.0794236295675873e+01  1.0660831284246681e+00  1.4894144026784343e+01  5.3451190264644417e+00  8.5528650780320437e+00  6.6989902421695229e+00  1.6488593388325903e+01  3.7306085558136490e+00  1.8986982552909630e+01  7.8041149001307772e+01  8.3461466458594771e+01  5.9561982192776867e+01  9.4183842479693965e+01  2.6901811649993088e+00  2.9305473089026556e+01  1.1726763752873426e+01  5.9574277338320648e+01  1.0738720841505304e+02  1.1530764704927222e+01  4.6103352935748887e+01  5.6745527944426456e+01  2.4475506490479017e+01  7.7605924516142419e+00  5.5960945616930626e+00  2.8571298949331596e+00  3.4524149411732910e+00  4.9177347202924455e+00  5.4429019534954000e+00  1.1144973548003424e+02  6.4030888204434532e+01  1.0296520664159264e+02  2.5827526364565059e+00  1.3013974908069782e+01  1.6307395187036885e+01  1.6154163308845281e+01  6.1828366295321171e+00  1.5063073559274574e+01  2.0473549712813909e+01  1.8499951770004568e+01  1.4990264909658617e+01  5.7135899519278430e+00  1.4169389543664387e+01  5.8131881406115660e+01  2.6590284479952886e+00  2.8516121785573265e+00  8.4361101114850658e+00  4.3475060313220006e+01  2.5657621597119933e+00  5.1111484493503312e+00  5.1351869761445421e+00  1.4447404290765282e+00  2.1202334828938287e+00  4.2259939075130069e+00  1.4674921920046446e+01  1.1321238169380814e+01  9.6409158486417912e+00  9.6609289547669590e+00  1.1240633447047008e+01  1.6328414201329913e+01  8.0617287096898629e+00  2.8237227852504105e+00  2.8363643223903861e+00  8.0195703126492415e+00  1.4881364731013227e+00  1.0941486061778358e+01  1.1150392020967788e+01  1.0665317073397848e+01  2.5163063607235060e+01  3.0433679129555524e+00  3.1578409332348865e+00  2.2708963849948245e+00  3.6202592783671754e+01  2.7614024743817161e+01  5.3094773262782603e+01  6.7570095534648207e+00  1.0018874151173776e+00  8.0731822891137710e+01  6.0998113215337170e+01  1.3921792382581666e+01  7.9519011876739725e+01  </DataArray> 
</PointData> 
</Piece>
</UnstructuredGrid>
</VTKFile>