<?xml version="1.0"?>
<VTKFile type="UnstructuredGrid"  version="0.1"  >
<UnstructuredGrid>
<Piece  NumberOfPoints="758" NumberOfCells="1386">
<Points>
<DataArray  type="Float64"  NumberOfComponents="3"  format="ascii">-1.570796326794897 3.048 0  -1.570796326794897 0 0  1.570796326794897 0 0  1.570796326794897 3.048 0  0 0 0  0 3.048 0  -1.570796326794897 1.524 0  1.570796326794897 1.524 0  -0.04609926118424437 1.524 0  0.7853981633974483 0 0  0.7623485328053261 2.262242601661362 0  -0.7853981633974483 0 0  -0.7853981633974483 3.048 0  0.392699081698724 0.7745759241961347 0  -1.570796326794897 0.762 0  -0.8084477939895706 2.0955 0  -0.68277245543452 0.8915343570675713 0  0.7853981633974483 3.048 0  0.778743707341909 1.468410948960538 0  2.780093748954961e-16 2.285302774973185 0  -1.570796326794897 2.286 0  1.570796326794897 0.762 0  1.570796326794897 2.286 0  -0.9375370967763674 1.47348297960658 0  0.9831575747762593 0.9003629142671278 0  -0.3926990816987241 0.4064697549061488 0  1.177419588818055 1.905 0  0.3692901340097942 1.880893989147954 0  -0.4920225169641509 2.564371687128368 0  0.3926990816987241 3.048 0  1.178097245096172 0 0  1.155705348811136 2.643920532523289 0  -1.178097245096172 3.048 0  -1.178097245096172 0 0  -0.1391296372266528 0.8873724190154949 0  -1.10527745318919 2.528282743051346 0  -0.9817477042468103 0.4742759268549471 0  -0.3416666987802651 1.923944646262223 0  -1.570796326794897 1.905 0  -1.156555306160469 1.030861936336814 0  0.7648449098493205 0.4764142032227 0  0.3926990816987241 0 0  -0.4820376416180818 1.326151321396512 0  0.06374421723344185 0.4545169930886408 0  0.1972735722393064 1.163324878565267 0  0.3900417218314142 2.566922767651637 0  1.570796326794897 0.381 0  1.188877612935585 1.295195418509834 0  1.179914028402171 0.5308585702661928 0  0.7660075594126428 1.865233039449035 0  0.6330293131838399 1.095171663968746 0  -1.201232463242587 2.144287146570887 0  -0.3926990816987241 0 0  -0.3926990816987241 3.048 0  1.178097245096172 3.048 0  0.7684409382397209 2.649499271873753 0  -1.236954997304436 1.7145 0  -0.1088573452899617 2.666651387486592 0  -1.570796326794897 1.143 0  -1.570796326794897 0.381 0  1.570796326794897 1.143 0  1.570796326794897 1.905 0  1.570796326794897 2.667 0  -1.570796326794897 2.667 0  -0.6730839067294777 1.743003792473746 0  1.199831389396789 2.275437921225198 0  0.3936837537618041 1.495643752599615 0  0.01539369169800942 1.928544709491661 0  0.4156551272669651 0.4219033286010089 0  0.3401546043708642 2.225103550856524 0  -0.3379897306391274 2.262671266279809 0  -1.23624174049596 0.7000907110925838 0  -1.265224057170889 1.360131453617764 0  -0.1224339018241312 1.210043725539656 0  1.289286200625578 0.9918698881707442 0  -0.7751142346211329 1.197848666814478 0  1.003546186550495 0.2660297686099683 0  0.1963495408493621 2.808538634159524 0  -0.8079023568959116 2.703551618159924 0  -0.3480226984353056 1.610059855391589 0  1.075147893506229 1.598068412087719 0  -0.8290627893979112 2.399544545867518 0  0.6965048925255637 0.7972100472372819 0  -1.257765094876752 0.3107645483825858 0  -0.6724835324263325 0.5684215760013651 0  -0.3995059642389676 0.7173610149075536 0  0.9136951972244611 1.187564504803626 0  -0.964259350608907 0.8095514380783081 0  -0.7565990314517038 0.2897049735129544 0  -0.9603859887840651 1.834914433810327 0  -0.1457055965762301 0.2521630699436873 0  0.1963495408493621 0.2041911848053476 0  0.6241974196550791 0.231695999252114 0  -0.4098815011312292 1.029160072548571 0  0.9592800715482012 2.452820690856482 0  0.9648684169153161 2.840751931000357 0  0.5890486225480862 3.048 0  0.164631037784102 1.698913854044779 0  0.5664480837073581 2.070920238540226 0  1.374107957806476 1.7145 0  0.9861079629544779 2.102471438422718 0  -1.374446785945534 3.048 0  -1.288827800789186 2.762781313597598 0  1.353232957571468 2.835634774483438 0  1.302158670506274 0.2650078124691045 0  0.1394669809465775 0.8907702620243092 0  -0.5631487221059602 2.830992231257464 0  1.372837635547072 2.483038902756259 0  -0.1493395228831287 0.618617259260858 0  -1.32327048447753 2.378769394323546 0  0.56080204725298 1.699622905297025 0  1.570796326794897 2.0955 0  0.5403456747786348 2.786446773498672 0  -0.9817477042468103 0 0  -0.5847039960246873 2.326882432521036 0  0.1225428891326576 2.526494255738436 0  -0.9817477042468103 3.048 0  -0.5522901559753841 2.071668786267058 0  -1.370864794258017 0.9075071715671403 0  -1.043891045637083 1.250611220450313 0  -0.1652643923634778 2.09141301924679 0  -1.044446740946883 2.764982067459552 0  -0.1610370079820225 1.763280243096074 0  -0.3136912237752232 2.810498886211121 0  0.5400974078002052 2.370472734822523 0  -0.7009161718414544 1.427243880175582 0  0.902907438200502 0.6735032943420574 0  -0.9879196222361604 0.2371379634274736 0  1.319268546233604 0.7412771512308228 0  0.5578373583610097 0.608241627784878 0  0.5756483102040615 1.332636919938113 0  -0.5281701577409 0.2032348774530744 0  -0.266729509930448 2.489223923247521 0  -1.570796326794897 0.5715 0  -0.2430656531629531 1.405631921096758 0  0.253622337931223 0.5884397663452474 0  1.284044721043478 1.50372037617638 0  1.570796326794897 1.3335 0  -0.9904333867980613 2.235882060371517 0  0.9871146764618406 1.395690276854986 0  -1.374446785945534 0 0  0.3981951765262902 1.020833864419675 0  0.1670583512016766 1.405384478716078 0  -1.330327693484763 1.938638984813805 0  0.2106653067452682 2.040805097078886 0  1.570796326794897 0.5715 0  1.334822181490566 2.081373939821734 0  -0.9303227889097604 1.033236710715967 0  -1.34639228476592 1.150776798768373 0  -1.570796326794897 0.1905 0  1.106697207481837 1.099709897393925 0  0.4137866939027022 0.2104288000383385 0  -1.570796326794897 2.0955 0  0.9761377489246634 0.4754251272674608 0  1.377108465632662 0.4605024587280874 0  1.108114944719677 0.7297638044096917 0  0.3695908229138113 1.285681859811955 0  0.9799112840676307 1.800306505551499 0  -0.001696842075803034 1.042028929293442 0  1.366537356420357 1.185723700290463 0  -1.385029840108318 0.47625 0  0.05842649915411911 0.6874537157920781 0  -1.183268988745763 0.4997334438341218 0  -0.6073502281622543 1.081347079085406 0  -1.026941765261019 2.031536576622642 0  -1.570796326794897 2.8575 0  0.8159726599830506 1.011928543199529 0  0.7652782693277244 2.849245002237192 0  -0.5252326280373281 1.520125074885265 0  0.7648326174724897 2.063743853392348 0  0.757099741434616 1.666331708950521 0  -0.1963495408493621 3.048 0  -0.005410422648647092 2.843333256403111 0  -1.395368347654653 2.19075 0  1.374446785945534 0 0  0.9817477042468103 3.048 0  0.1963495408493621 0 0  -0.1963495408493621 0 0  0.5890486225480862 0 0  0.1963495408493621 3.048 0  0.9817477042468103 0 0  1.374446785945534 3.048 0  -0.5890486225480862 3.048 0  -0.5890486225480862 0 0  -0.06865319188571758 2.471928549109083 0  1.159049337209348 2.838090892449816 0  0.5817075150535711 2.596909954318943 0  0.7656515661107315 2.455866896253367 0  0.9620790410056582 2.647119292933887 0  0.3676829480103987 1.68739481709134 0  -0.8886101495223063 2.878912500124773 0  -0.3317793704126089 0.1873756770788371 0  -1.383208664444332 2.577695923010364 0  -1.043597917648523 1.648216005744782 0  -1.362178343413552 1.546177620526679 0  -1.570796326794897 1.7145 0  -0.8462722504471433 1.648434957877788 0  -0.588076822054871 0.3899352838051667 0  1.570796326794897 2.8575 0  -1.570796326794897 0.9525 0  1.570796326794897 0.1905 0  1.570796326794897 1.7145 0  1.570796326794897 0.9525 0  -1.570796326794897 1.3335 0  1.570796326794897 2.4765 0  -1.570796326794897 2.4765 0  0.8103777117362174 0.287468585434799 0  -1.145334531235929 1.881885620422454 0  -0.8620560674467429 0.6361265362229395 0  -0.321688879263093 1.207848147265888 0  -0.7798551871678058 1.904240998338365 0  -0.4724954359209014 1.769587110195458 0  -0.667402576232105 2.495985359319255 0  0.5365063314111709 0.8945566719544227 0  0.1855702280441107 2.342745654422604 0  0.55510120733165 1.88540118775351 0  1.188295809121239 2.460939894898248 0  1.38587897409014 2.260870763688798 0  1.383978812419919 1.901097375082534 0  -0.2265735189171196 1.049795314962436 0  0.7387890113368257 1.246392780742437 0  0.5763234466275948 1.516457524623135 0  -0.203279258075353 0.4348372558382012 0  -1.179202350299698 1.523245956950107 0  -1.151844216720993 2.318990544544152 0  -1.410806081599612 0.6547540757597369 0  0.04190096621848406 2.108399609871347 0  0.5925649981629265 0.4343292987553075 0  0.2371113691258682 0.4102816185532077 0  1.334103818253725 2.657728219912091 0  0.9405077369493808 2.275181409651143 0  -0.633962040105568 2.669303984283053 0  -0.6045614816381242 1.904349918307267 0  1.159697673803787 2.079238591118184 0  -0.004643801590645341 1.347662554528907 0  0.3691400131247499 2.395423267764724 0  0.3855005143298051 2.055603978165229 0  0.01839821075864462 0.1788084577298442 0  -0.9568120219060965 2.61629404172056 0  0.1783135820912846 1.871116340262054 0  0.3649950158263953 2.745288921627024 0  -0.3142054567155264 0.5671999812317062 0  -0.4933549623779417 0.564740705097546 0  0.06092775470575962 2.685867440722903 0  -0.1801827362748675 2.337517890002858 0  -1.063355415037434 0.6386189748554 0  -1.205242865599393 0.8676070232612285 0  -0.4176020549597784 2.412196127179313 0  -0.3347051678178828 2.093252344225509 0  -1.427772711006951 0.2857500000000001 0  0.8835729338221293 0.1362887052191026 0  -0.6831011505337878 0.1389086130988801 0  -1.403875662049666 1.77648180985222 0  1.394165436236593 1.362588987767805 0  -0.5007942298153729 0.8700626692351643 0  -0.6093220848169366 0.7321530406295067 0  0.007534593095922887 1.760126887057542 0  -1.276272015520854 0.140425968067263 0  -0.7270478511000733 2.847016806985676 0  1.436331331726002 0.85725 0  -0.1770320080670663 1.927167796173981 0  0.7200726153501196 0.6345534912379586 0  -1.099983122078282 0.3577316115390257 0  0.2324759135153202 2.648405702327079 0  0.9054371869972004 1.582409569434113 0  0.5000672234640285 1.188708149930449 0  -0.340793734207542
[...]
<PointData  Scalars="Elastic Energy"> 
<DataArray  type="Float64"  Name="Elastic Energy"  format="ascii">2.2068510538508510e-01  1.1348182521316308e+00  1.1363039302268587e+00  2.2325051763289971e-01  1.1181948783740026e+00  1.7728013592384568e+02  7.3510106197805319e-02  7.1437364470309628e-02  8.4465566359052302e-01  1.1246025060343898e-02  6.2406465903898112e-01  1.0486612455047107e-02  1.5722407829244127e+00  3.2940485883964971e-01  4.5664867785931268e-01  4.6814915599117052e-01  4.5605548737392525e-02  1.5283100074541529e+00  1.8281892312099984e-01  1.9397895988437830e+00  5.2414537933844534e-02  4.5829866557784843e-01  5.6353391891986022e-02  2.7959196118953855e-01  2.6105922921533303e-01  4.4394886101639547e-01  1.4522033404646317e-01  1.7607386736145819e-01  7.8904612116969286e-01  1.1092059774169240e+01  5.6828097574296765e-01  3.3343108151794768e-02  7.0580006601401943e-02  5.7594584806617199e-01  7.5554518174658991e-01  9.8539176921692048e-02  2.5086951066723467e-01  2.4069505565710528e-01  1.8048621940328455e-02  3.3122363748350869e-01  7.2985402934841695e-02  5.6271983302185447e-01  8.6005198069071601e-02  9.6121133268303016e-01  6.1697891588894826e-01  5.3046689827745719e-01  7.6468079794166866e-01  2.7335300674091256e-01  4.6230092728721828e-01  3.2343370827881429e-01  4.5879894609350387e-02  7.5217808532634531e-02  5.6215712485305913e-01  1.0877880858491658e+01  7.5193634074629534e-02  1.0532473116874372e+00  1.4562814781110395e-01  5.3961550711715409e+00  2.2495673245374811e-01  7.6709387763770764e-01  2.2507118650638336e-01  1.4943331687691484e-02  1.4107216030970884e-01  1.4152900112379463e-01  1.7036475813808247e-01  5.7203987560117089e-02  1.7237883112509361e-01  1.1006175463998225e+00  3.8934751222908554e-01  2.9492143738499332e-01  3.2059845909370643e-01  4.4240728566452914e-01  2.2257487729223510e-01  7.3640471487791259e-01  3.4452666780411079e-01  1.2599486080360700e-01  2.8201999145345746e-01  5.7358020737654130e+00  1.0036926544724714e+00  2.4138566904020611e-01  2.6960476494246810e-01  6.4272791982042921e-01  5.1571241713026794e-02  6.2754979245940801e-01  6.3124242463842462e-02  3.3259605612623699e-01  2.3297657961023205e-01  2.4115247051926708e-01  7.1578617727450319e-02  3.2151685877577174e-01  9.4300613146827084e-01  8.7038091486210156e-01  1.2170173520763422e-01  2.3888900892823123e-01  3.6463929979758458e-01  2.9901356705066789e-01  5.6450843909295836e+00  7.0299040277878644e-01  2.2654872944431936e-01  7.1330751114562982e-02  3.1666150143019739e-01  1.6110110540490949e-01  5.0074602578879614e-02  9.8340787918174230e-02  6.9718523941534627e-01  7.5754051075713391e-01  3.0915990640357096e+00  4.6671525038271856e-02  8.1390630903357020e-01  3.1125005932770351e-02  7.3782331587293623e-02  2.3098201689868640e-02  2.7404223628387601e+00  1.8074842321335841e-01  5.2718225294203058e-01  2.6106749005929104e+00  3.2879958460029041e-01  2.0714280305742069e-01  3.7493911050554968e-01  2.9495600313751941e-01  9.5413450599556482e-01  1.3921598217207742e-01  7.3937504965795842e-01  4.1105828969108087e+00  4.9085456016255269e-01  1.0588245137654878e-01  1.7496532401569795e-01  2.5378466246237102e-01  4.5413325307965302e-01  1.2751419076164136e-01  4.3895568967143972e-02  2.3768013339226202e-01  9.0881612820057722e-01  5.9968352672675385e-01  4.9267736157562531e-01  6.5402119048239737e-01  1.7119862202287747e-01  1.3951750172754360e-01  3.1422736396570428e-01  2.8696490868941277e-01  9.3485449990668790e-01  2.5604535215360369e-01  6.6063012117484232e-01  5.0514298562428846e-02  7.3441949689552144e-01  6.0289040276393169e-01  3.2334112025942469e-02  2.2972220569751717e-01  2.6511639416141242e-01  8.8696741386189204e-01  3.1319557151122074e-01  4.4444680907911194e-01  2.1794464733857315e-02  2.4668049692132535e-01  6.4390460509862746e-01  3.6103740598605766e-01  2.5052741511915072e-01  3.0461045745325233e-01  8.2195753001193772e-01  2.4492686255555257e-01  6.3714139048851159e-01  8.8446058564950636e-01  4.7666923033026942e-01  4.9349862427359018e-02  2.6644016618044719e-01  1.8795084581400376e-01  1.3420643900105100e-01  1.4104188176996577e+00  4.4358150368195522e-02  4.4340872984588919e-01  2.2544205771870415e-01  1.9343629034985046e+01  2.1615549755067491e+01  2.4464170349786551e-02  9.3829558941713131e-01  3.0987708563356015e-01  9.6464051749739943e-01  9.6007241086195816e-01  1.5775732245417190e-01  1.5373421257202024e+01  1.8329643787837904e-01  1.5651226643469074e-01  5.6602338041769658e+00  1.6649444097421029e-01  2.8537075484592442e+00  1.9289082360425487e-02  1.1441407524011415e+00  8.1515391808867432e-01  3.5426091293074630e-01  1.9349162335988490e-01  5.6627105557634694e-01  6.1129727038436199e-01  6.5138720879109463e-02  2.7482407505004508e-01  1.1862903908722638e-01  2.9949078998352901e-02  2.7650678469878315e-01  1.3811829671191378e-01  1.8578346281492417e-01  3.3299432396435119e-01  8.8608802475503201e-01  3.2225525859260563e-02  3.3243794036141217e-01  1.3663030237310289e-01  9.0860422999218815e-02  9.3216617220077277e-02  9.0671538408186841e-02  1.7539060090301711e-01  1.3768029254767997e-01  3.5892540148172847e-01  3.4669981662925475e-01  6.8932970885388870e-02  9.6086518766520690e-01  9.9010757676821659e-02  1.2893393926865473e+00  1.0685970274977466e-01  3.8397803902557121e-02  2.8909085829577737e-02  3.7741033817300200e-02  5.8014630839396275e-01  1.0529931607154404e-01  4.8671472390339705e-02  8.0294443318667696e-01  2.2549333859561502e-01  8.5268439212783098e-02  5.2344728655301820e-01  1.4257364335498006e+00  1.2493880603753828e-01  7.5644616850876556e-01  6.2923117065554562e-02  4.0386142412467152e-01  1.5415272115537373e+00  1.7430748080358682e-01  1.2500740082279369e-01  8.3390846547558062e-01  3.7582642899317192e-01  1.6358588146702002e-01  1.0294587024140163e+00  3.6713762323732596e-01  7.2277376466452448e-01  2.6108342162044900e+00  5.4466609599557181e-01  2.1727302179388727e-01  7.2595781815288172e+00  1.3031363172793853e+00  3.3211767429799621e-01  3.7976416159927184e-01  3.5161911580320154e-01  2.8950985785674199e-01  7.9326268311811632e-01  1.1382071349475675e-01  6.7494852745788231e-02  4.8049029172449145e-02  1.6384994047870519e-01  1.3583933494714026e-01  7.1236864933912444e-02  9.9029826048026581e-01  6.7320498005320839e-01  1.6258916728951807e+00  3.9998868878366695e-01  7.5877316380363202e-01  5.9111014060544677e-02  4.1136990936636919e-01  2.5551721389351809e+00  2.8981646407202349e-01  8.4425032952879772e-02  1.4656161532957792e+00  3.8297201615183535e-01  2.1394742511759099e-01  8.9601320491413783e-02  6.8455654783476971e-01  4.9408620104153589e-01  4.0663882737110857e-02  1.0023149455918226e-01  2.0347198828046453e-01  3.4655928393091218e-01  2.9911366393417171e-01  3.6267758182980125e-01  4.2066123284041357e-01  1.1622889357535937e-01  2.6305487170811148e-01  2.5635777728896730e-01  5.9093420052190870e-01  2.1699755116909414e-02  7.6839712671896085e-02  4.2385379736826462e-01  6.2759343555102964e-01  8.3745271974431976e-02  2.9473668102453332e-01  1.2594958668024919e+01  2.9179818656305651e-01  9.4909318772854316e+00  1.3922369032147153e-01  4.9277517031820162e-01  8.1912745590524894e-01  1.1293713763426826e-01  3.5094771875474484e-01  5.5454733153434554e-01  8.2101499642556353e-01  1.3162415172450351e-01  1.8843824286189997e-01  2.8013868697742067e-01  4.7636418853564322e-01  5.5326148592495694e-01  4.9065345367386062e-02  1.0703787495593722e+00  2.4653150262778029e-01  5.6931117883429128e+00  2.8731637045937236e-01  1.4619335623511023e-01  1.6850592189908897e-01  1.5062958181965000e-01  1.1956268460542599e-01  1.7008627680571046e-02  2.4935232519924944e-01  2.9626632583447282e-01  3.1692303670435695e-01  6.7503699110209292e-01  8.3994917700068228e-01  7.7040488227575943e-01  2.2396704543858377e+00  9.8318018105463889e-01  8.4496018147148244e-01  2.1454482424334659e-01  4.7969492675945274e-01  1.9203308039455899e-01  1.5841046253485830e-01  2.5422677426632895e-01  1.0289246119475134e-01  3.0393820264546658e+01  8.0484081167649379e-01  1.2368738577882037e-01  2.0253161420683265e-02  2.0720516150276852e-01  3.2395634041664101e-01  3.0310108121491135e+00  1.4861347651583101e-01  9.4726063517763526e-01  6.8350349519774378e-01  2.5260072492300606e-01  6.0801364927032822e-02  5.2388909128008443e-01  8.5651022629776086e-01  3.4588673973963407e-01  9.6192357397127126e-01  5.9618285968744369e-02  1.0801796970790116e+00  1.4226470859375098e-01  6.9152464503034949e-01  8.4690210993190618e-01  3.8287674344381761e-01  5.7187130177936907e-01  6.0892578736054812e+00  2.8088371857190697e-01  1.4560038660447153e-01  6.5026091851160428e-02  1.8746402736266526e-01  4.7906139070130677e-01  8.6687074170969963e-02  7.3603692633039253e-01  7.0962382354861231e-01  1.1521495343265466e-01  1.3815432112707249e-01  6.6125745289288118e-01  3.3001047786897175e-01  2.3561826539379521e-01  3.4504540774266723e-01  4.5774537565152507e-01  9.5182035388269734e-02  3.0472522915935873e-01  1.7418022481329876e-01  5.8101479157902466e-02  3.9447486540951254e-01  2.3394750714315391e+00  9.6962160545290568e-02  2.5851464542855414e-02  1.8790418276936501e-02  3.6110605688999786e-01  9.3514699270078416e-01  5.2834230616566391e-01  1.3503654330040823e-01  5.9692605818862848e-02  2.1795747486394509e-01  5.9110682039769535e-01  9.9522829119350023e-02  6.8660676669984752e-02  1.6956292530054782e+00  8.3155593519099136e-01  6.7010782173989580e-01  9.7472256893217946e+00  2.1823161217576545e-01  3.3752894507190767e-02  4.7649638204598971e-02  2.4495506814192495e-02  3.0207454020776386e-01  2.2171243843846687e-02  4.2546206564812800e-01  6.9563608658110190e-02  1.7243129135845531e-01  6.7625015972970465e-02  9.1334044696455285e-02  6.8604309123762128e-02  1.5822916237446165e+00  4.8200280311334409e-01  3.6443088554900654e-01  3.5726941891723901e-02  3.0834522889089006e-01  7.3949430901204050e-01  4.3879624077648177e-01  5.9539033020696852e-02  6.4557870882134183e-01  2.2573847772733235e-01  1.5262438704487022e+00  2.8583441098141416e-01  5.0492865189845126e-01  9.4457018539466064e-01  1.8027310500854607e-01  4.7022281349362688e-01  2.7202364751455216e-01  6.1290401118381521e-01  2.6755199935269428e-02  1.2909422669381215e-01  3.0034005212213994e+00  4.2541135161173873e+00  8.0763467212240858e-01  7.1239921542988904e-01  3.4929398426641431e-02  2.6223575667147010e-02  4.2365753585586963e-01  3.5092255234522862e-01  7.2278805728957818e-01  9.1573940560025013e-01  6.0473116093462576e-01  3.1027117437370527e-01  2.8338633825680776e-01  1.0186227975923103e-01  2.8234371702660349e-01  8.1119630369206031e-01  9.9836135978891877e-02  4.3778705912678399e-02  7.0828320360259134e-01  2.0340362400403884e-02  4.4303232465374770e-01  7.1137406871927891e-02  7.2706371955275295e-02  9.2107983014367872e-02  1.1006817211593779e-01  3.9757933101295928e-01  2.9548705740761261e-01  3.6485677217272305e-01  3.2163920853214338e+00  1.2277783295673101e+00  8.1392491632420783e-01  4.7316604967231934e-01  8.8275380560577044e-02  9.8345294571649366e-01  4.6185762352859296e-02  1.0194052782907956e-01  1.0948498547911487e-01  1.0238325530528029e-01  2.1301796657152952e-01  1.0167182217345337e-01  2.5926838805091124e-01  6.7023137430647944e-02  2.6456982661365451e+00  5.1123587770557199e-01  6.5563163528212320e-01  7.4300554219342480e-02  4.9903768952980149e-01  9.4395122961157138e-02  5.0475324061783115e-02  7.9482207304452088e-02  1.0118902657851436e-01  4.8753128507400212e-01  2.6023718978797233e-01  9.2984096313220049e-02  2.0753898216370079e-01  9.2200161184498486e-01  5.8838248375976441e+01  8.2946531406459223e-01  5.5919051302184963e-01  2.1943001238953136e-01  2.3752669889589045e-02  2.7638884221498697e-02  5.1054485457746834e-01  1.5141117670112805e-01  4.0995774324464446e-01  3.9020445427721634e-01  7.1514483370648385e-01  6.8522435768997428e-02  5.1504037920614987e-01  1.0771154721798980e-01  2.1247442747420353e-01  4.9553668179412574e-01  4.3860408123017081e-01  8.7022923394119704e+00  4.9958628360185359e-01  2.8872885929257114e-01  5.9104664422316322e+00  2.9978462948804946e-01  9.9613954748925315e-01  4.4062594971435287e-01  5.0689927853295391e-01  7.6029922854759258e-01  4.8091699988759139e+01  3.1334010523833233e-01  2.9579339498453490e-02  4.9170973845067252e+00  2.3305962302318300e-01  3.3333441918013318e-01  6.3686656470917646e-01  1.5791759336161715e-01  2.1756457657479469e-01  8.6500509645068846e-01  2.2196009205400574e-01  2.1993445710718970e-01  7.0948791455866744e-02  1.0183744760745531e-01  2.9230119908465607e-01  2.4679658880445393e-01  8.9882755186358720e-01  8.1911286721268783e-01  2.4061693393645869e-01  1.2089238357587016e-01  3.1251100852511554e-01  6.8312050016644588e-02  3.1697340119319600e-02  2.0988672417388901e-01  6.6165964914420461e-01  2.3710419613414438e-01  1.0200445395441557e+00  4.7105578187080238e-01  2.9602152384510028e+00  3.3164889779262624e-01  3.0029337559741298e-01  1.9359013302663899e+00  1.1646033704599870e-01  4.5537568870172374e-01  2.7360107847087717e-01  2.9836877165438408e-01  1.6069512786396123e-01  3.0347340743595325e-01  2.7700070449909003e-01  2.8303822369388826e-01  1.1339954853461727e+00  3.7399994584024793e-01  4.0712023802829572e-01  4.1050854562197747e-01  9.7561689674175098e-02  2.8108700040877332e-01  2.0091374399361570e-01  3.6523789245555444e-01  2.7106582397443346e-01  7.7486006921058515e-01  1.6759950378745861e-01  7.9252943889049032e-01  1.6128135290857129e-01  6.8069331245745268e-02  7.6061692228785016e-01  8.5661889858234627e-02  9.4799391258416008e-02  1.6479239044281607e-01  1.2717434253863733e+00  6.9846585569805231e-01  2.7117170986439354e-01  6.8069490578840586e-01  7.0871575065380110e-01  6.0484456397071484e-01  6.8800696519461890e-01  5.7920309992092278e-01  2.9456337212825490e-01  2.3571830366339938e-01  3.3478436499086756e-01  8.8519233874730874e-01  3.4680759495878455e-01  1.0144023573420984e+00  5.3043917259431739e-01  9.3371617012095037e-02  1.1166553365687311e-01  5.5194264909454054e-02  3.0592598743308841e-01  1.7321891546793361e-01  5.5815853219992551e-01  3.5887576501259422e-01  4.2987111478611156e-01  1.4777036102685950e-01  8.1001935918116053e-01  1.1163880367070010e-01  7.5332199241133685e-02  3.0639308473707988e-01  6.7710752332029700e-01  1.4698025535214738e+01  9.7361588743886269e+00  3.1135545886646454e-01  2.9613635689136808e-01  7.2104122000357915e-02  5.1454658072218440e-02  4.6887895035297618e+00  1.6954010653664022e+00  2.1110370102742759e-02  9.1911984053661588e-01  1.0664816414675478e+00  9.7852674712786969e-01  1.4756945595414681e-01  1.4385773864069795e-01  4.2586664270042834e-01  6.3269128817375689e-02  3.5632800531814746e-01  4.0603191923284954e-01  9.9820603967665483e-02  9.5528127634373003e-02  4.1916761839062888e-01  2.9586832289161191e-01  2.4896943179290618e-02  2.3446998642306915e-01  2.3515145392739281e-01  1.5727424978494062e-01  1.8966822551971271e-01  1.9037069946576368e-01  1.2135945429209283e-01  1.9668699283052358e+00  5.8701866239481082e-01  2.6327942165500950e-01  1.3785099967220047e+00  1.2650955296489452e+00  4.1371560007930325e-02  4.2628890090558585e-01  2.5566580725964649e-01  5.6620504284566497e-01  1.8968338676562729e-01  2.5602911501267900e-01  1.7438776915074303e-01  5.4416292306744565e-02  2.3882606400185149e+00  1.8530794319082842e+00  2.4837077442817054e-01  1.2374788732244067e-01  6.6805797079908302e-02  1.1314338809471117e-01  5.6893784600982919e-02  6.4350590318492426e-02  3.6781093783856417e-01  1.0088214303769340e-01  8.1464871502021530e-02  8.7548161749205586e-02  6.2776989138546946e-01  8.0459218446562819e-01  1.3298435059750735e-01  2.2090913633435003e-01  1.5862682468219755e+00  7.7879762932363095e-01  1.6381911535459973e-01  1.5594908196201918e-01  1.4390514961321843e+00  1.4087762991953032e-01  2.0745480025760354e-01  5.3321546825052712e-01  6.2494977893771606e-02  3.3755423137709129e-01  1.1032033528230432e+00  1.2368206935837533e+01  7.6061240881365644e-01  1.1785359768970673e-01  1.0193954099143865e-01  7.8450563139526306e+00  1.1063369168279558e+00  7.8398821285127940e-01  4.3661142222976295e+01  7.9030212209654038e-01  4.8277363060260717e-02  8.5541063411433527e+00  1.3823891692367512e+01  3.5605010343857724e-01  7.7630771574326907e-01  5.2084717202468614e-02  5.7212131279462571e-02  1.0701423169271038e+00  2.0585032417267826e-01  2.8820360897628774e+00  1.2195004436043495e-01  7.1624564916852740e-01  1.8220458110401544e-01  3.9840855412586978e-01  2.4775526498237810e-01  9.1651004272943093e-01  1.7109854898561863e-01  3.6036886136346241e-01  1.7547861861503613e+00  1.9568643821285714e+00  7.5382839183609518e-01  2.6425039253587812e-01  4.4973530834735313e-02  8.9919429516789731e-02  4.5748518075709135e-02  1.0130347575763998e+00  7.5290723323352304e-01  1.4802969104702826e-01  3.4083774434084690e-01  6.7780462866756197e-01  5.9461856355932263e-01  1.9660831884615265e-01  1.9273756225176222e-01  9.8665259669074551e-02  3.5332460924463849e-01  2.6290916371490936e-01  3.9464498794658159e-01  4.2801135324339212e-01  3.0416105401095067e-01  8.1106362230335038e-01  1.0744839397813817e-01  5.2956844394559777e-01  8.3126275749159595e-01  8.4153693238508276e-01  2.7009545315577854e-01  7.9201211262411475e-01  8.5224433109223463e-01  8.3999340522165422e-01  6.3397740333289954e-01  1.9306233713002791e-01  5.9289789525080028e-01  6.2745363973207324e-01  2.1739543918733467e-01  2.5707427048976506e-01  2.4146820301792546e-01  7.8996611041665199e-01  7.1091776262378462e-02  5.1096942399655697e-02  5.1626853283474210e-02  1.1466643653238812e-01  1.6103225469575047e-01  2.0544398093907115e-01  6.8128668218331168e-01  3.9515733273463399e-01  2.7626200483415569e-01  2.7569913908801924e-01  3.9159732462634000e-01  8.3068449978205694e-01  1.7942942599151135e-01  1.8424702805687254e-02  1.7655887441362334e-02  1.7946931672776126e-01  7.0303313825507752e-02  3.5581384328152921e-01  4.9794925657777550e-01  5.3035928615330108e-01  6.2626315856702128e-02  7.3790187665445345e-02  1.5086525496216685e-01  3.7023185258935463e-02  1.5575990964925440e-01  3.0928100979518275e-01  3.3663864244565160e+00  1.2931429235123851e-01  1.2285396182665302e-01  9.6814367602641760e-01  7.4230499866670052e-01  6.4687348949041401e-01  2.2428439909439968e+00  </DataArray> 
</PointData> 
</Piece>
</UnstructuredGrid>
</VTKFile>