<?xml version="1.0"?>
<VTKFile type="UnstructuredGrid"  version="0.1"  >
<UnstructuredGrid>
<Piece  NumberOfPoints="758" NumberOfCells="1386">
<Points>
<DataArray  type="Float64"  NumberOfComponents="3"  format="ascii">-1.570796326794897 3.048 0  -1.570796326794897 0 0  1.570796326794897 0 0  1.570796326794897 3.048 0  0 0 0  0 3.048 0  -1.570796326794897 1.524 0  1.570796326794897 1.524 0  -0.04609926118424437 1.524 0  0.7853981633974483 0 0  0.7623485328053261 2.262242601661362 0  -0.7853981633974483 0 0  -0.7853981633974483 3.048 0  0.392699081698724 0.7745759241961347 0  -1.570796326794897 0.762 0  -0.8084477939895706 2.0955 0  -0.68277245543452 0.8915343570675713 0  0.7853981633974483 3.048 0  0.778743707341909 1.468410948960538 0  2.780093748954961e-16 2.285302774973185 0  -1.570796326794897 2.286 0  1.570796326794897 0.762 0  1.570796326794897 2.286 0  -0.9375370967763674 1.47348297960658 0  0.9831575747762593 0.9003629142671278 0  -0.3926990816987241 0.4064697549061488 0  1.177419588818055 1.905 0  0.3692901340097942 1.880893989147954 0  -0.4920225169641509 2.564371687128368 0  0.3926990816987241 3.048 0  1.178097245096172 0 0  1.155705348811136 2.643920532523289 0  -1.178097245096172 3.048 0  -1.178097245096172 0 0  -0.1391296372266528 0.8873724190154949 0  -1.10527745318919 2.528282743051346 0  -0.9817477042468103 0.4742759268549471 0  -0.3416666987802651 1.923944646262223 0  -1.570796326794897 1.905 0  -1.156555306160469 1.030861936336814 0  0.7648449098493205 0.4764142032227 0  0.3926990816987241 0 0  -0.4820376416180818 1.326151321396512 0  0.06374421723344185 0.4545169930886408 0  0.1972735722393064 1.163324878565267 0  0.3900417218314142 2.566922767651637 0  1.570796326794897 0.381 0  1.188877612935585 1.295195418509834 0  1.179914028402171 0.5308585702661928 0  0.7660075594126428 1.865233039449035 0  0.6330293131838399 1.095171663968746 0  -1.201232463242587 2.144287146570887 0  -0.3926990816987241 0 0  -0.3926990816987241 3.048 0  1.178097245096172 3.048 0  0.7684409382397209 2.649499271873753 0  -1.236954997304436 1.7145 0  -0.1088573452899617 2.666651387486592 0  -1.570796326794897 1.143 0  -1.570796326794897 0.381 0  1.570796326794897 1.143 0  1.570796326794897 1.905 0  1.570796326794897 2.667 0  -1.570796326794897 2.667 0  -0.6730839067294777 1.743003792473746 0  1.199831389396789 2.275437921225198 0  0.3936837537618041 1.495643752599615 0  0.01539369169800942 1.928544709491661 0  0.4156551272669651 0.4219033286010089 0  0.3401546043708642 2.225103550856524 0  -0.3379897306391274 2.262671266279809 0  -1.23624174049596 0.7000907110925838 0  -1.265224057170889 1.360131453617764 0  -0.1224339018241312 1.210043725539656 0  1.289286200625578 0.9918698881707442 0  -0.7751142346211329 1.197848666814478 0  1.003546186550495 0.2660297686099683 0  0.1963495408493621 2.808538634159524 0  -0.8079023568959116 2.703551618159924 0  -0.3480226984353056 1.610059855391589 0  1.075147893506229 1.598068412087719 0  -0.8290627893979112 2.399544545867518 0  0.6965048925255637 0.7972100472372819 0  -1.257765094876752 0.3107645483825858 0  -0.6724835324263325 0.5684215760013651 0  -0.3995059642389676 0.7173610149075536 0  0.9136951972244611 1.187564504803626 0  -0.964259350608907 0.8095514380783081 0  -0.7565990314517038 0.2897049735129544 0  -0.9603859887840651 1.834914433810327 0  -0.1457055965762301 0.2521630699436873 0  0.1963495408493621 0.2041911848053476 0  0.6241974196550791 0.231695999252114 0  -0.4098815011312292 1.029160072548571 0  0.9592800715482012 2.452820690856482 0  0.9648684169153161 2.840751931000357 0  0.5890486225480862 3.048 0  0.164631037784102 1.698913854044779 0  0.5664480837073581 2.070920238540226 0  1.374107957806476 1.7145 0  0.9861079629544779 2.102471438422718 0  -1.374446785945534 3.048 0  -1.288827800789186 2.762781313597598 0  1.353232957571468 2.835634774483438 0  1.302158670506274 0.2650078124691045 0  0.1394669809465775 0.8907702620243092 0  -0.5631487221059602 2.830992231257464 0  1.372837635547072 2.483038902756259 0  -0.1493395228831287 0.618617259260858 0  -1.32327048447753 2.378769394323546 0  0.56080204725298 1.699622905297025 0  1.570796326794897 2.0955 0  0.5403456747786348 2.786446773498672 0  -0.9817477042468103 0 0  -0.5847039960246873 2.326882432521036 0  0.1225428891326576 2.526494255738436 0  -0.9817477042468103 3.048 0  -0.5522901559753841 2.071668786267058 0  -1.370864794258017 0.9075071715671403 0  -1.043891045637083 1.250611220450313 0  -0.1652643923634778 2.09141301924679 0  -1.044446740946883 2.764982067459552 0  -0.1610370079820225 1.763280243096074 0  -0.3136912237752232 2.810498886211121 0  0.5400974078002052 2.370472734822523 0  -0.7009161718414544 1.427243880175582 0  0.902907438200502 0.6735032943420574 0  -0.9879196222361604 0.2371379634274736 0  1.319268546233604 0.7412771512308228 0  0.5578373583610097 0.608241627784878 0  0.5756483102040615 1.332636919938113 0  -0.5281701577409 0.2032348774530744 0  -0.266729509930448 2.489223923247521 0  -1.570796326794897 0.5715 0  -0.2430656531629531 1.405631921096758 0  0.253622337931223 0.5884397663452474 0  1.284044721043478 1.50372037617638 0  1.570796326794897 1.3335 0  -0.9904333867980613 2.235882060371517 0  0.9871146764618406 1.395690276854986 0  -1.374446785945534 0 0  0.3981951765262902 1.020833864419675 0  0.1670583512016766 1.405384478716078 0  -1.330327693484763 1.938638984813805 0  0.2106653067452682 2.040805097078886 0  1.570796326794897 0.5715 0  1.334822181490566 2.081373939821734 0  -0.9303227889097604 1.033236710715967 0  -1.34639228476592 1.150776798768373 0  -1.570796326794897 0.1905 0  1.106697207481837 1.099709897393925 0  0.4137866939027022 0.2104288000383385 0  -1.570796326794897 2.0955 0  0.9761377489246634 0.4754251272674608 0  1.377108465632662 0.4605024587280874 0  1.108114944719677 0.7297638044096917 0  0.3695908229138113 1.285681859811955 0  0.9799112840676307 1.800306505551499 0  -0.001696842075803034 1.042028929293442 0  1.366537356420357 1.185723700290463 0  -1.385029840108318 0.47625 0  0.05842649915411911 0.6874537157920781 0  -1.183268988745763 0.4997334438341218 0  -0.6073502281622543 1.081347079085406 0  -1.026941765261019 2.031536576622642 0  -1.570796326794897 2.8575 0  0.8159726599830506 1.011928543199529 0  0.7652782693277244 2.849245002237192 0  -0.5252326280373281 1.520125074885265 0  0.7648326174724897 2.063743853392348 0  0.757099741434616 1.666331708950521 0  -0.1963495408493621 3.048 0  -0.005410422648647092 2.843333256403111 0  -1.395368347654653 2.19075 0  1.374446785945534 0 0  0.9817477042468103 3.048 0  0.1963495408493621 0 0  -0.1963495408493621 0 0  0.5890486225480862 0 0  0.1963495408493621 3.048 0  0.9817477042468103 0 0  1.374446785945534 3.048 0  -0.5890486225480862 3.048 0  -0.5890486225480862 0 0  -0.06865319188571758 2.471928549109083 0  1.159049337209348 2.838090892449816 0  0.5817075150535711 2.596909954318943 0  0.7656515661107315 2.455866896253367 0  0.9620790410056582 2.647119292933887 0  0.3676829480103987 1.68739481709134 0  -0.8886101495223063 2.878912500124773 0  -0.3317793704126089 0.1873756770788371 0  -1.383208664444332 2.577695923010364 0  -1.043597917648523 1.648216005744782 0  -1.362178343413552 1.546177620526679 0  -1.570796326794897 1.7145 0  -0.8462722504471433 1.648434957877788 0  -0.588076822054871 0.3899352838051667 0  1.570796326794897 2.8575 0  -1.570796326794897 0.9525 0  1.570796326794897 0.1905 0  1.570796326794897 1.7145 0  1.570796326794897 0.9525 0  -1.570796326794897 1.3335 0  1.570796326794897 2.4765 0  -1.570796326794897 2.4765 0  0.8103777117362174 0.287468585434799 0  -1.145334531235929 1.881885620422454 0  -0.8620560674467429 0.6361265362229395 0  -0.321688879263093 1.207848147265888 0  -0.7798551871678058 1.904240998338365 0  -0.4724954359209014 1.769587110195458 0  -0.667402576232105 2.495985359319255 0  0.5365063314111709 0.8945566719544227 0  0.1855702280441107 2.342745654422604 0  0.55510120733165 1.88540118775351 0  1.188295809121239 2.460939894898248 0  1.38587897409014 2.260870763688798 0  1.383978812419919 1.901097375082534 0  -0.2265735189171196 1.049795314962436 0  0.7387890113368257 1.246392780742437 0  0.5763234466275948 1.516457524623135 0  -0.203279258075353 0.4348372558382012 0  -1.179202350299698 1.523245956950107 0  -1.151844216720993 2.318990544544152 0  -1.410806081599612 0.6547540757597369 0  0.04190096621848406 2.108399609871347 0  0.5925649981629265 0.4343292987553075 0  0.2371113691258682 0.4102816185532077 0  1.334103818253725 2.657728219912091 0  0.9405077369493808 2.275181409651143 0  -0.633962040105568 2.669303984283053 0  -0.6045614816381242 1.904349918307267 0  1.159697673803787 2.079238591118184 0  -0.004643801590645341 1.347662554528907 0  0.3691400131247499 2.395423267764724 0  0.3855005143298051 2.055603978165229 0  0.01839821075864462 0.1788084577298442 0  -0.9568120219060965 2.61629404172056 0  0.1783135820912846 1.871116340262054 0  0.3649950158263953 2.745288921627024 0  -0.3142054567155264 0.5671999812317062 0  -0.4933549623779417 0.564740705097546 0  0.06092775470575962 2.685867440722903 0  -0.1801827362748675 2.337517890002858 0  -1.063355415037434 0.6386189748554 0  -1.205242865599393 0.8676070232612285 0  -0.4176020549597784 2.412196127179313 0  -0.3347051678178828 2.093252344225509 0  -1.427772711006951 0.2857500000000001 0  0.8835729338221293 0.1362887052191026 0  -0.6831011505337878 0.1389086130988801 0  -1.403875662049666 1.77648180985222 0  1.394165436236593 1.362588987767805 0  -0.5007942298153729 0.8700626692351643 0  -0.6093220848169366 0.7321530406295067 0  0.007534593095922887 1.760126887057542 0  -1.276272015520854 0.140425968067263 0  -0.7270478511000733 2.847016806985676 0  1.436331331726002 0.85725 0  -0.1770320080670663 1.927167796173981 0  0.7200726153501196 0.6345534912379586 0  -1.099983122078282 0.3577316115390257 0  0.2324759135153202 2.648405702327079 0  0.9054371869972004 1.582409569434113 0  0.5000672234640285 1.188708149930449 0  -0.340793734207542
[...]
<PointData  Scalars="Elastic Energy"> 
<DataArray  type="Float64"  Name="Elastic Energy"  format="ascii">4.4320121432666841e+00  1.2322900142575005e+01  1.2322213034979027e+01  4.4810407862943480e+00  1.8522278695832835e+01  8.0545093177435797e+02  2.3769089262071401e+00  2.3686524642539410e+00  7.8814857424460465e+00  2.8912313551400448e-01  5.2852362135066056e+00  2.9861859076227437e-01  9.3953742941393287e+01  4.6324743955905552e+00  6.7258918815229336e+00  3.3071164115354912e+00  1.0517598922136144e+00  1.0016444526048596e+02  1.7701150938092940e+00  2.1844469702226569e+01  4.4786318610206438e-01  6.7474680107595502e+00  4.3443792526143726e-01  2.2163070436378032e+00  2.5754716105352342e+00  6.1633073426923062e+00  1.8504036578899707e+00  3.3067004839428744e+00  4.4346178351932686e+01  3.5305667025718698e+01  7.2334867887084853e+00  1.5768199528931990e+00  1.8748454524278395e+00  7.3023180079721826e+00  8.9066852546482931e+00  2.2014357985879420e+00  2.9789596393310798e+00  3.8416707122739098e+00  1.0251326023349741e+00  3.7287500162018086e+00  1.0594278182123469e+00  7.2885528420097199e+00  2.0357842763140033e+00  1.3063173335875540e+01  6.8360720276675897e+00  4.1970647075283786e+01  9.5166490080034496e+00  3.1588248323344006e+00  5.5806255002880043e+00  2.6073474028329242e+00  1.2621406916970053e+00  1.3735415696688633e+00  7.2585699221656208e+00  3.8014382905399614e+01  2.0149933541746252e+00  3.1434008137781646e+01  2.0926773048016742e+00  9.4595143742632459e+01  4.3609809961435566e+00  9.5453960037366201e+00  4.3259051711657230e+00  1.0047920071445073e+00  1.2366772584477108e+00  1.2076534144289188e+00  2.0984918906527708e+00  1.2899204951885557e+00  2.7632563063265128e+00  8.2794698355979310e+00  5.4294054913125143e+00  1.1954603115083364e+01  1.4587279705687713e+01  5.4996787809308216e+00  3.0893576070031306e+00  7.8048604343917223e+00  4.6251285402226552e+00  1.4117842302480383e+00  3.6405587486354110e+00  7.2437732116538768e+01  3.7371910700331895e+01  3.2620655852299771e+00  2.4170650115405650e+00  6.8075726403356160e+00  1.0382022333272014e+00  7.6781566761401834e+00  1.1350325511562378e+00  4.7028488657441461e+00  2.0355815265383388e+00  2.4531673768929090e+00  1.0558089057544091e+00  2.3690069281310380e+00  1.3694578708954168e+01  1.2708316948598917e+01  1.5934877827506866e+00  3.5182077745167692e+00  4.2524505615732231e+00  1.9449250698647983e+01  5.6619552512123285e+01  6.4880364869410929e+00  3.6293254694804320e+00  1.8247320809277976e+00  2.5481267623524064e+00  3.0011989298145516e+00  9.1138661047930436e-01  1.3327532641498336e+00  8.4518364632813583e+00  8.9204104901011476e+00  6.5395237131814199e+01  5.8779003495569715e-01  1.0503150875728151e+01  7.1359611829377634e-01  1.8754798001338899e+00  6.1804700100585763e-01  6.4396473663900750e+01  3.0766779662989907e+00  1.1806793010880153e+01  5.5239914243748359e+01  3.2189429906753389e+01  3.7708734399467949e+00  5.4060124399979506e+00  2.7154602963167971e+00  8.9760452466062812e+00  6.9079659647849905e+00  6.6097572537970750e+00  3.9692800500245632e+01  1.7713071394719933e+01  1.5100541515457158e+00  1.9177669820928471e+00  3.3547701319571868e+00  5.9863313050506726e+00  2.1656494862494218e+00  1.4772287213279878e+00  3.0696476209899553e+00  3.8174809597951679e+01  8.0261196526266776e+00  5.3150592722661205e+00  8.6503458874437396e+00  2.6172292684170175e+00  3.2939113186565128e+00  2.7776135928824983e+00  2.3818937130489859e+00  1.0609520230604748e+01  3.7060497908479415e+00  6.6710789508369155e+00  1.3227104863651244e+00  8.0367168448194928e+00  8.0727947066134487e+00  1.0107881648597210e+00  2.1253564921468580e+00  4.0825214143072470e+00  1.0402950222741032e+01  3.2588400660961359e+00  6.0203860147289907e+00  6.0556581999722503e-01  2.9261168414528917e+00  8.1000149754788726e+00  4.0860858965360478e+00  3.4644110451348871e+00  2.3290812367812221e+00  9.0638708710849798e+00  3.9589290925596399e+00  8.0687440939880357e+00  1.1047711570789549e+01  5.7720427836666932e+00  1.3780100762867862e+00  2.2526634943417285e+00  2.5134464517412951e+00  1.4328584002171996e+00  7.5503195683756061e+01  1.6995742993814980e+00  3.3533859744036927e+00  2.1021512990963096e+00  1.3647202751700794e+02  1.6255138655775772e+02  6.6988231652407637e-01  1.0638002019573454e+01  3.1485611633082147e+01  1.5049995700194591e+01  1.5063523270501596e+01  1.3032542047859395e+00  1.2639081777440741e+02  3.1307882444085440e+00  2.9698455456986599e+00  5.3250354394435654e+01  1.3713496231315772e+00  5.2361210325708655e+01  1.6282371745511701e+00  4.4634673899816462e+01  1.1591894453367987e+01  8.9650647257037139e+00  2.9552924047658231e+00  4.1583137255216357e+01  8.5701138434780333e+00  7.0612676138679153e-01  2.3408160493061474e+00  2.4195598331615757e+00  1.5976861231998600e+00  2.1740443433197219e+00  2.0343043050978968e+00  2.5433767995140002e+00  5.5095784188860941e+00  1.0362671331793331e+01  1.6120940375732793e+00  5.5359189398818458e+00  3.2991863788990132e+00  5.5784954646398943e-01  5.8364425654904062e-01  1.2862069910526075e+00  1.9538956472039553e+00  1.5765605247495089e+00  4.4705924435593758e+00  2.7345187601234549e+00  2.1737617920856893e+00  2.2918526349689991e+01  2.0249798570951576e+00  2.5933765588975998e+01  2.4339186454270343e+00  1.2279979411647794e+00  6.2485181492091857e-01  1.2655132953038399e+00  6.7214506484968455e+00  1.3467371658194622e+00  1.5614670885287254e+00  1.0958435454333699e+01  2.5662826133754932e+00  1.5732619285716536e+00  7.0692793329225507e+00  1.0520287135526260e+01  1.9139343966154725e+00  1.0412331354880278e+01  9.7749493983972369e-01  3.3806138951861104e+00  5.4230956380748275e+01  2.5466902376788023e+00  1.7045001711360790e+00  8.2934145781643327e+00  2.7010637707138091e+01  4.9302735534874751e+00  1.5425980526096929e+01  7.9589808692948445e+00  6.3590970648249598e+00  3.9196094625003411e+01  7.3614563294592639e+00  3.2937910665887093e+00  1.1346290507952655e+02  2.5500338711511798e+01  3.7589909176618228e+00  4.5904242094761676e+00  2.7728669982678806e+01  6.6267319537449119e+00  9.6157387145777999e+00  1.7250431239240440e+00  8.1411528442565162e-01  1.5648214049421030e+00  3.1443383537779979e+00  2.4645489955471347e+00  1.4847938137900005e+00  8.2209022986885056e+00  8.1101622861037992e+00  7.8871024431303454e+01  5.9383411075855514e+00  6.5825895434101147e+00  1.0096279681581111e+00  5.0529006014194220e+00  5.1951413032025243e+01  2.2265949217221523e+00  1.9906587097993818e+00  4.4625762580105260e+01  2.7205365186555621e+00  2.2190093758659222e+00  1.2059922708018231e+00  8.5861752461857712e+00  4.8654413470257802e+00  1.3013748769684299e+00  1.2515251214891721e+00  1.7982152289896305e+00  3.8451605495921495e+00  3.4902399476812151e+00  4.7707239479816304e+00  5.1265257361007928e+00  1.7522389613249356e+00  2.7022080914887985e+00  2.9341179590949431e+00  5.8577397912424383e+00  1.4530688682764992e+00  1.0840376198533999e+00  5.5511758797507573e+00  7.9850599417380952e+00  1.2960296812011196e+00  3.7588481141344894e+00  7.7488616352671372e+01  4.8220373404768342e+00  3.0776290952283993e+01  2.9924452529984706e+00  5.1197272959391684e+00  8.5848426335911672e+00  2.2562567260543034e+00  4.9431105651509535e+00  4.1519293189182012e+00  1.4128902475313140e+01  1.4262328282752070e+00  2.8883736418939976e+00  2.7810258230057334e+00  5.9585499189934827e+00  7.3591279524989766e+00  1.0879091929433935e+00  1.2500666340382573e+01  8.1482674897766945e+00  3.4382766031533301e+01  4.8358197740530171e+00  1.5181768996865015e+00  2.1565692881609571e+00  2.1274386038788919e+00  1.2213715833024601e+00  1.1116196176812736e+00  2.3171535080468124e+00  2.7600477482517833e+00  3.3053571041814784e+00  8.1118898141515263e+00  9.8032347065056289e+00  9.4240246480572480e+00  4.5167630734351320e+01  1.3703218341619186e+01  9.8535461834901259e+00  1.8609880966722534e+00  6.0553584855478224e+00  3.7791392360075045e+00  2.2460745670272986e+00  2.1980789032156229e+00  2.5194447027191789e+00  1.4107789143993475e+02  7.4427915317228583e+00  2.2339858773362011e+00  8.7662980575683391e-01  8.2079136934290702e+00  3.6956186051595341e+00  8.2465687940750328e+01  1.9491481205159757e+00  1.3391479111373224e+01  9.7124016304874523e+00  3.4571352059257880e+00  6.7635082649278289e-01  6.2319061912748470e+00  1.0485684645810762e+01  3.0918205061893937e+00  1.4621903830779830e+01  4.9544869792195029e-01  3.6807086246792736e+01  1.3090749962639942e+01  9.6726348856022391e+00  9.8101367710926901e+00  2.7094890009218520e+00  7.0266525785543514e+00  3.2189045748784679e+01  2.9456120322339929e+00  1.5717831688763806e+00  9.1148520578567604e-01  2.0725032660341949e+00  3.4378417433005750e+00  8.4021978212590174e+00  6.5363766792004498e+01  2.8565069188003019e+01  5.0254306805142459e+00  2.7718394061190166e+00  1.1253211845391460e+01  4.2725661036859206e+00  2.0553169157769062e+00  3.7715414744138127e+00  4.4929460724779524e+00  1.7548037994289341e+00  3.8886211703278302e+00  2.7686553649601664e+00  1.8151367944895453e+00  4.7838458550763141e+00  3.9980155123784705e+01  7.5241362913813037e-01  7.5561321438498841e-01  8.5388376120346665e-01  4.0673312814424412e+00  1.2427132459545957e+01  6.6679422464131157e+00  1.7577754728930519e+00  2.0161157175353175e+00  2.6371108540768704e+00  8.2131546782947105e+00  1.5992460223089522e+00  5.4053476788972776e-01  6.2496143268329796e+01  7.4759205280331367e+00  7.1687985407764723e+00  3.3897297559834328e+01  1.9096612405867657e+00  9.9463892789923192e-01  5.1548616337154651e-01  1.0832875398459125e+00  2.4020901727267585e+00  1.2960345387036718e+00  4.5216922600411769e+00  2.0178785993202433e+00  2.2155967756055377e+00  2.1515721133674477e+00  3.0045516276741591e+00  1.0487124309742273e+00  5.3055798968327494e+01  5.9891562506074703e+00  5.1753746414802917e+00  1.0804285694974682e+00  2.3153935485971688e+00  8.2554841239482482e+00  6.3367918023568723e+00  1.9857728741347735e+00  2.5774972025716380e+01  2.2254883184968075e+00  1.3067918199375166e+01  3.8986107266615666e+00  6.3676005592701657e+00  1.4282555424673921e+01  3.6564353673747099e+00  6.1611526877459717e+00  3.6080296888556638e+00  5.6582879530726444e+00  1.1379241121981960e+00  1.6666610205255905e+00  5.0021440632318800e+01  8.1745351079959690e+01  1.1850596839462559e+01  7.4057521889097639e+00  5.0618714316403068e-01  6.3190732807126715e-01  5.6220418592368251e+00  4.5827181998738791e+00  1.0634634055912695e+01  2.3511806605781672e+01  3.3704120868762111e+01  3.0609297843411416e+00  2.3986004801883651e+00  1.2859529690373321e+00  2.5108379063407296e+00  1.2970311268661550e+01  2.0652177275004302e+00  1.3296373058071527e+00  7.2056860775196565e+00  8.0044726011780376e-01  1.5999921465611278e+01  2.3818834173863208e+00  1.8981802741404403e+00  1.4132620545755690e+00  1.5087258191742281e+00  5.1959720384740553e+00  4.0744277748018538e+00  4.2698371441824348e+00  8.5834688021245000e+01  9.1143890833432017e+00  7.8032209066222018e+00  6.6619068065676048e+00  1.7051339217835850e+00  8.0181588715899021e+00  1.4328241923489105e+00  1.3989068031881873e+00  1.3513070699641438e+00  1.2517639931956208e+00  2.1815080013885724e+00  3.1211364574217360e+00  3.8064503810729930e+00  9.2028688715886953e-01  5.4430593261015069e+01  2.6115870746582448e+01  4.0477210611117592e+01  1.2748559647093403e+00  5.0127953598877726e+00  2.0128775098351435e+00  1.1984779711442219e+00  1.4567636596687479e+00  1.7787500471442330e+00  5.4754262816746797e+00  3.7997542604257331e+00  2.0129028601486247e+00  3.6290517739443735e+00  1.2014440360965557e+01  3.9808488309603399e+02  1.1104870819635160e+01  7.6318605671883075e+00  3.5587075932961554e+00  1.1797587468735917e+00  1.8112042977258156e+00  6.7578193975811685e+00  1.8651000865533554e+00  3.0083445270756166e+00  5.2918083651765242e+00  6.9995892216133733e+00  1.0637185635504656e+00  5.6604658678127189e+00  2.2405119954835238e+00  3.0208722527593030e+00  5.9538975622017691e+00  3.6875713525052367e+00  1.0216827489209204e+02  8.5729841737648957e+00  2.7564527762114790e+00  2.9720784325097448e+01  2.3371591402599057e+00  8.0123534940849286e+00  5.0932774210796987e+00  8.6262324412570237e+00  8.3662459836581533e+00  2.2076718261935153e+02  4.0660943798075442e+00  8.4751441242908920e-01  2.9830920886448702e+01  2.1536721341499807e+00  2.4381590174234127e+00  8.2628137670045447e+00  2.3440230810371125e+00  2.3536742761050751e+00  1.0407903352903915e+01  2.5300134744626686e+00  1.5641433418774005e+01  9.9629359635895987e-01  2.8080088231371509e+00  2.4769619370450484e+00  2.0156990310675167e+00  1.1433265529583519e+01  1.0568379980588366e+01  2.3473220673833897e+00  4.3483383792782071e+00  2.3365054455088563e+00  1.3584753926764133e+00  1.3950880773484875e+00  4.2026018238310812e+00  9.3330412146473432e+00  3.4708983036744283e+00  1.4657000480381633e+01  4.9061356034576820e+00  8.3063415417166055e+01  3.5735585937231416e+00  2.9792562639799969e+00  9.6620463894207177e+01  8.0548380851782819e-01  5.8449101001103561e+00  2.9494668739836620e+00  1.5828315954606014e+01  1.8277214721476422e+00  3.3650338305693621e+00  3.1314282578799824e+00  2.6205342842813590e+00  3.1570143052094867e+01  5.7978579914859694e+00  5.2785149148770918e+00  4.8527118751482110e+00  2.1254940372869919e+00  3.4734997110596852e+00  2.2871119604950843e+00  4.3298929641532524e+00  3.3927258923099570e+00  1.1209528956219563e+01  2.7614985068926154e+00  1.1167955411287016e+01  1.5844805579853172e+00  1.0284132555064724e+00  9.1039691083020582e+00  2.1487775917247198e+00  2.5251401142539924e+00  2.8088585503310290e+00  9.2529470506641744e+01  7.0832493572267992e+01  2.3224553046143566e+00  8.7691296454771930e+00  8.9452426925487778e+00  7.9640215301452830e+00  8.4869876455300997e+00  7.1093383444385907e+00  4.3774059248315567e+00  4.2822521272444902e+00  3.9227016816927764e+00  7.7465492242870857e+00  5.2108359150971175e+00  2.5123659847773499e+01  7.4181926529829472e+00  1.5405705041972977e+00  9.2439541707188722e-01  8.8389159876231482e-01  2.3480550038626888e+00  1.8971019362739636e+00  6.9333583738330065e+00  4.1346905418670659e+00  5.1457496471937123e+00  1.5875052889138523e+00  9.2121620177025108e+00  9.7103224466640441e+00  4.8288466506019995e-01  3.0890722368854577e+00  8.3362770588586184e+00  1.3073511976670179e+02  1.3503978998953832e+02  4.6135921898452139e+00  2.3458969344588367e+00  1.2101818892998988e+00  1.1634164237614659e+00  4.1275594789768142e+01  5.7374066870839179e+01  1.2882997643292449e+00  1.0515907832102258e+01  1.1716667144838505e+01  7.8427490566198141e+00  2.4774509439113674e+00  2.2235960493398705e+00  4.4853771927583406e+00  1.5613093616559059e+00  4.1806872079331674e+00  2.9215535795581697e+00  2.1079783682352629e+00  2.7420851667804418e+00  5.7202479542417688e+00  2.4532648738982861e+00  7.7543617793147002e-01  2.5019154469657736e+00  2.6509515804925670e+00  1.8717413610863565e+00  1.7609857372664719e+00  1.8807366965080179e+00  1.9918531391150447e+00  7.7119539177074458e+01  7.0823740432625177e+00  2.2223970748382333e+00  4.3304190716482935e+01  5.3517729133135560e+01  4.9589460809777353e-01  5.2102949966372014e+00  3.6259544982635221e+00  6.3895294021517453e+00  2.9176601700108384e+00  2.3109205559845156e+00  1.8446282177461799e+00  8.3047216678224245e-01  3.6789478073183680e+01  4.1417094809940565e+01  3.5880088738586995e+00  1.9857772008101782e+00  1.5544162362815335e+00  2.3326865355835809e+00  1.7643676594070148e+00  1.0361615437942016e+00  2.8821319976330058e+00  2.8131042021746917e+00  6.0825080831437495e-01  1.1683679275753753e+00  7.7170993662697054e+00  9.1684116790128325e+00  1.8840557899507486e+00  2.0839133969365382e+00  1.5003129075704058e+01  1.1151769240279329e+01  1.7773539487242873e+00  1.9202685991694137e+00  1.7093233190943998e+01  5.1819271017654778e+00  3.0051582798973286e+00  6.6023318401552284e+00  1.4204385497513117e+00  3.6730413156688297e+00  1.8228912631996653e+01  8.6078563851474499e+01  6.8299255758464838e+01  9.1906557830945985e+00  1.6093755537481571e+00  4.4799566538206740e+01  1.8297958702777535e+01  1.1339995141049309e+01  2.6348025978910431e+02  9.3338682915315321e+00  2.5060258105643457e-01  4.3579775701311931e+01  9.1249240702005324e+01  5.0933983518057291e+00  9.1980529113893077e+00  2.6486642297044427e-01  1.3460083304100692e+00  1.1763953428022292e+01  4.1061231612764750e+00  8.7967218264210231e+01  1.7789154930007172e+00  9.0015247674666856e+00  2.8323573466224219e+00  5.1399803368458317e+00  3.6550738881848761e+00  1.0496424484987454e+01  2.2590244443123360e+00  5.7481244399261824e+00  2.2907381599622276e+01  3.9561833318644787e+01  1.6232886947610094e+01  2.8596437770919341e+01  1.0197066097501675e+00  6.5617967001181556e+00  1.5922433538574887e+00  4.5319731701659727e+01  4.4928945503897332e+01  3.6805083553258569e+00  1.2821221328207493e+01  1.7441226569110444e+01  7.0463368868470981e+00  3.1079086557754425e+00  2.8960422699196129e+00  1.6263536692253608e+00  2.5424775092819418e+00  2.4964792400931874e+00  2.9507863722148411e+00  4.2034188087642207e+01  1.8600931193355517e+01  4.0152782188854417e+01  1.5198303658741397e+00  7.4255960040700355e+00  1.0060344277022764e+01  1.0036908314660542e+01  3.5541127914876749e+00  9.6262061797307350e+00  1.1958025094400837e+01  1.1171073825108643e+01  8.7311113269530747e+00  3.0104494283213810e+00  8.2068915592657827e+00  2.3724239254899729e+01  2.0616647321384520e+00  2.2406742126275812e+00  4.2734061896381972e+00  1.1358601521093018e+01  1.1564472038863707e+00  1.9711333328476466e+00  1.9867869527443418e+00  7.9597456569416003e-01  1.7298167285242918e+00  3.5859092840271858e+00  8.7634606269859123e+00  6.1323129928221043e+00  4.9015851519010338e+00  4.9014754853060447e+00  6.0808924204865962e+00  1.0072040976850719e+01  3.8002017244705950e+00  8.1221611755326106e-01  8.0783189434525782e-01  3.7897678024057138e+00  4.7876056564976016e-01  3.4848153938578941e+00  3.9786343293032846e+00  6.5166803878393242e+00  4.0586234882012855e+00  1.5131370233532455e+00  1.9566046870203488e+00  9.8990131781820645e-01  6.9108458432531767e+00  5.4820666575466293e+00  4.5758802860758728e+01  3.0475396696313033e+00  1.8989649818872518e+00  3.6317028273537119e+01  1.5887726238123633e+01  8.4257186577305205e+00  7.7211065835654452e+01  </DataArray> 
</PointData> 
</Piece>
</UnstructuredGrid>
</VTKFile>