<?xml version="1.0"?>
<VTKFile type="UnstructuredGrid"  version="0.1"  >
<UnstructuredGrid>
<Piece  NumberOfPoints="758" NumberOfCells="1386">
<Points>
<DataArray  type="Float64"  NumberOfComponents="3"  format="ascii">-1.570796326794897 3.048 0  -1.570796326794897 0 0  1.570796326794897 0 0  1.570796326794897 3.048 0  0 0 0  0 3.048 0  -1.570796326794897 1.524 0  1.570796326794897 1.524 0  -0.04609926118424437 1.524 0  0.7853981633974483 0 0  0.7623485328053261 2.262242601661362 0  -0.7853981633974483 0 0  -0.7853981633974483 3.048 0  0.392699081698724 0.7745759241961347 0  -1.570796326794897 0.762 0  -0.8084477939895706 2.0955 0  -0.68277245543452 0.8915343570675713 0  0.7853981633974483 3.048 0  0.778743707341909 1.468410948960538 0  2.780093748954961e-16 2.285302774973185 0  -1.570796326794897 2.286 0  1.570796326794897 0.762 0  1.570796326794897 2.286 0  -0.9375370967763674 1.47348297960658 0  0.9831575747762593 0.9003629142671278 0  -0.3926990816987241 0.4064697549061488 0  1.177419588818055 1.905 0  0.3692901340097942 1.880893989147954 0  -0.4920225169641509 2.564371687128368 0  0.3926990816987241 3.048 0  1.178097245096172 0 0  1.155705348811136 2.643920532523289 0  -1.178097245096172 3.048 0  -1.178097245096172 0 0  -0.1391296372266528 0.8873724190154949 0  -1.10527745318919 2.528282743051346 0  -0.9817477042468103 0.4742759268549471 0  -0.3416666987802651 1.923944646262223 0  -1.570796326794897 1.905 0  -1.156555306160469 1.030861936336814 0  0.7648449098493205 0.4764142032227 0  0.3926990816987241 0 0  -0.4820376416180818 1.326151321396512 0  0.06374421723344185 0.4545169930886408 0  0.1972735722393064 1.163324878565267 0  0.3900417218314142 2.566922767651637 0  1.570796326794897 0.381 0  1.188877612935585 1.295195418509834 0  1.179914028402171 0.5308585702661928 0  0.7660075594126428 1.865233039449035 0  0.6330293131838399 1.095171663968746 0  -1.201232463242587 2.144287146570887 0  -0.3926990816987241 0 0  -0.3926990816987241 3.048 0  1.178097245096172 3.048 0  0.7684409382397209 2.649499271873753 0  -1.236954997304436 1.7145 0  -0.1088573452899617 2.666651387486592 0  -1.570796326794897 1.143 0  -1.570796326794897 0.381 0  1.570796326794897 1.143 0  1.570796326794897 1.905 0  1.570796326794897 2.667 0  -1.570796326794897 2.667 0  -0.6730839067294777 1.743003792473746 0  1.199831389396789 2.275437921225198 0  0.3936837537618041 1.495643752599615 0  0.01539369169800942 1.928544709491661 0  0.4156551272669651 0.4219033286010089 0  0.3401546043708642 2.225103550856524 0  -0.3379897306391274 2.262671266279809 0  -1.23624174049596 0.7000907110925838 0  -1.265224057170889 1.360131453617764 0  -0.1224339018241312 1.210043725539656 0  1.289286200625578 0.9918698881707442 0  -0.7751142346211329 1.197848666814478 0  1.003546186550495 0.2660297686099683 0  0.1963495408493621 2.808538634159524 0  -0.8079023568959116 2.703551618159924 0  -0.3480226984353056 1.610059855391589 0  1.075147893506229 1.598068412087719 0  -0.8290627893979112 2.399544545867518 0  0.6965048925255637 0.7972100472372819 0  -1.257765094876752 0.3107645483825858 0  -0.6724835324263325 0.5684215760013651 0  -0.3995059642389676 0.7173610149075536 0  0.9136951972244611 1.187564504803626 0  -0.964259350608907 0.8095514380783081 0  -0.7565990314517038 0.2897049735129544 0  -0.9603859887840651 1.834914433810327 0  -0.1457055965762301 0.2521630699436873 0  0.1963495408493621 0.2041911848053476 0  0.6241974196550791 0.231695999252114 0  -0.4098815011312292 1.029160072548571 0  0.9592800715482012 2.452820690856482 0  0.9648684169153161 2.840751931000357 0  0.5890486225480862 3.048 0  0.164631037784102 1.698913854044779 0  0.5664480837073581 2.070920238540226 0  1.374107957806476 1.7145 0  0.9861079629544779 2.102471438422718 0  -1.374446785945534 3.048 0  -1.288827800789186 2.762781313597598 0  1.353232957571468 2.835634774483438 0  1.302158670506274 0.2650078124691045 0  0.1394669809465775 0.8907702620243092 0  -0.5631487221059602 2.830992231257464 0  1.372837635547072 2.483038902756259 0  -0.1493395228831287 0.618617259260858 0  -1.32327048447753 2.378769394323546 0  0.56080204725298 1.699622905297025 0  1.570796326794897 2.0955 0  0.5403456747786348 2.786446773498672 0  -0.9817477042468103 0 0  -0.5847039960246873 2.326882432521036 0  0.1225428891326576 2.526494255738436 0  -0.9817477042468103 3.048 0  -0.5522901559753841 2.071668786267058 0  -1.370864794258017 0.9075071715671403 0  -1.043891045637083 1.250611220450313 0  -0.1652643923634778 2.09141301924679 0  -1.044446740946883 2.764982067459552 0  -0.1610370079820225 1.763280243096074 0  -0.3136912237752232 2.810498886211121 0  0.5400974078002052 2.370472734822523 0  -0.7009161718414544 1.427243880175582 0  0.902907438200502 0.6735032943420574 0  -0.9879196222361604 0.2371379634274736 0  1.319268546233604 0.7412771512308228 0  0.5578373583610097 0.608241627784878 0  0.5756483102040615 1.332636919938113 0  -0.5281701577409 0.2032348774530744 0  -0.266729509930448 2.489223923247521 0  -1.570796326794897 0.5715 0  -0.2430656531629531 1.405631921096758 0  0.253622337931223 0.5884397663452474 0  1.284044721043478 1.50372037617638 0  1.570796326794897 1.3335 0  -0.9904333867980613 2.235882060371517 0  0.9871146764618406 1.395690276854986 0  -1.374446785945534 0 0  0.3981951765262902 1.020833864419675 0  0.1670583512016766 1.405384478716078 0  -1.330327693484763 1.938638984813805 0  0.2106653067452682 2.040805097078886 0  1.570796326794897 0.5715 0  1.334822181490566 2.081373939821734 0  -0.9303227889097604 1.033236710715967 0  -1.34639228476592 1.150776798768373 0  -1.570796326794897 0.1905 0  1.106697207481837 1.099709897393925 0  0.4137866939027022 0.2104288000383385 0  -1.570796326794897 2.0955 0  0.9761377489246634 0.4754251272674608 0  1.377108465632662 0.4605024587280874 0  1.108114944719677 0.7297638044096917 0  0.3695908229138113 1.285681859811955 0  0.9799112840676307 1.800306505551499 0  -0.001696842075803034 1.042028929293442 0  1.366537356420357 1.185723700290463 0  -1.385029840108318 0.47625 0  0.05842649915411911 0.6874537157920781 0  -1.183268988745763 0.4997334438341218 0  -0.6073502281622543 1.081347079085406 0  -1.026941765261019 2.031536576622642 0  -1.570796326794897 2.8575 0  0.8159726599830506 1.011928543199529 0  0.7652782693277244 2.849245002237192 0  -0.5252326280373281 1.520125074885265 0  0.7648326174724897 2.063743853392348 0  0.757099741434616 1.666331708950521 0  -0.1963495408493621 3.048 0  -0.005410422648647092 2.843333256403111 0  -1.395368347654653 2.19075 0  1.374446785945534 0 0  0.9817477042468103 3.048 0  0.1963495408493621 0 0  -0.1963495408493621 0 0  0.5890486225480862 0 0  0.1963495408493621 3.048 0  0.9817477042468103 0 0  1.374446785945534 3.048 0  -0.5890486225480862 3.048 0  -0.5890486225480862 0 0  -0.06865319188571758 2.471928549109083 0  1.159049337209348 2.838090892449816 0  0.5817075150535711 2.596909954318943 0  0.7656515661107315 2.455866896253367 0  0.9620790410056582 2.647119292933887 0  0.3676829480103987 1.68739481709134 0  -0.8886101495223063 2.878912500124773 0  -0.3317793704126089 0.1873756770788371 0  -1.383208664444332 2.577695923010364 0  -1.043597917648523 1.648216005744782 0  -1.362178343413552 1.546177620526679 0  -1.570796326794897 1.7145 0  -0.8462722504471433 1.648434957877788 0  -0.588076822054871 0.3899352838051667 0  1.570796326794897 2.8575 0  -1.570796326794897 0.9525 0  1.570796326794897 0.1905 0  1.570796326794897 1.7145 0  1.570796326794897 0.9525 0  -1.570796326794897 1.3335 0  1.570796326794897 2.4765 0  -1.570796326794897 2.4765 0  0.8103777117362174 0.287468585434799 0  -1.145334531235929 1.881885620422454 0  -0.8620560674467429 0.6361265362229395 0  -0.321688879263093 1.207848147265888 0  -0.7798551871678058 1.904240998338365 0  -0.4724954359209014 1.769587110195458 0  -0.667402576232105 2.495985359319255 0  0.5365063314111709 0.8945566719544227 0  0.1855702280441107 2.342745654422604 0  0.55510120733165 1.88540118775351 0  1.188295809121239 2.460939894898248 0  1.38587897409014 2.260870763688798 0  1.383978812419919 1.901097375082534 0  -0.2265735189171196 1.049795314962436 0  0.7387890113368257 1.246392780742437 0  0.5763234466275948 1.516457524623135 0  -0.203279258075353 0.4348372558382012 0  -1.179202350299698 1.523245956950107 0  -1.151844216720993 2.318990544544152 0  -1.410806081599612 0.6547540757597369 0  0.04190096621848406 2.108399609871347 0  0.5925649981629265 0.4343292987553075 0  0.2371113691258682 0.4102816185532077 0  1.334103818253725 2.657728219912091 0  0.9405077369493808 2.275181409651143 0  -0.633962040105568 2.669303984283053 0  -0.6045614816381242 1.904349918307267 0  1.159697673803787 2.079238591118184 0  -0.004643801590645341 1.347662554528907 0  0.3691400131247499 2.395423267764724 0  0.3855005143298051 2.055603978165229 0  0.01839821075864462 0.1788084577298442 0  -0.9568120219060965 2.61629404172056 0  0.1783135820912846 1.871116340262054 0  0.3649950158263953 2.745288921627024 0  -0.3142054567155264 0.5671999812317062 0  -0.4933549623779417 0.564740705097546 0  0.06092775470575962 2.685867440722903 0  -0.1801827362748675 2.337517890002858 0  -1.063355415037434 0.6386189748554 0  -1.205242865599393 0.8676070232612285 0  -0.4176020549597784 2.412196127179313 0  -0.3347051678178828 2.093252344225509 0  -1.427772711006951 0.2857500000000001 0  0.8835729338221293 0.1362887052191026 0  -0.6831011505337878 0.1389086130988801 0  -1.403875662049666 1.77648180985222 0  1.394165436236593 1.362588987767805 0  -0.5007942298153729 0.8700626692351643 0  -0.6093220848169366 0.7321530406295067 0  0.007534593095922887 1.760126887057542 0  -1.276272015520854 0.140425968067263 0  -0.7270478511000733 2.847016806985676 0  1.436331331726002 0.85725 0  -0.1770320080670663 1.927167796173981 0  0.7200726153501196 0.6345534912379586 0  -1.099983122078282 0.3577316115390257 0  0.2324759135153202 2.648405702327079 0  0.9054371869972004 1.582409569434113 0  0.5000672234640285 1.188708149930449 0  -0.340793734207542
[...]
<PointData  Scalars="Elastic Energy"> 
<DataArray  type="Float64"  Name="Elastic Energy"  format="ascii">1.4194565843677735e+03  2.2049604008565439e+01  2.2182441444605477e+01  1.3696181836735116e+03  7.2358844783876435e+01  3.5293073496973075e+03  1.8519811985613345e+01  1.8671284568506785e+01  3.1241911623550652e+02  5.2560993307973751e+00  4.3851020465477355e+01  5.2579659058587209e+00  1.6732829437517836e+01  1.0098054892739255e+02  2.3343037973252464e+01  9.8405974101026104e+01  6.4844813125524055e+01  1.6095619666614152e+01  1.8826665079167933e+02  3.3893874277179646e+02  3.2762960619805213e+01  2.3725227264567046e+01  3.1713033685700729e+01  1.2145940929579689e+02  3.0548953726574233e+00  3.2404297286379773e+01  9.9463234183786412e+01  6.3117707671108953e+01  3.5919852222414633e+01  8.3532834049824217e+01  1.7157979656029426e+01  2.0270128848572782e+02  1.0551133215157805e+02  1.7025839364733972e+01  2.0985085827502917e+02  1.9646065661376409e+02  3.5744165080293917e+00  9.0399853905143118e+01  2.8739218627125949e+00  4.7517668830812365e+00  7.9144227819613722e+00  2.2314511181094041e+01  1.2249551353780127e+02  1.3494121749117252e+01  1.2425902428433167e+02  7.7515590908194483e+01  2.2836252707350724e+01  7.0373762086511746e+00  1.1060761685324051e+01  1.2685681662722062e+02  1.8403313750838649e+02  1.3763764801218747e+02  2.1110981015506301e+01  7.5121479793868886e+01  1.0057730102402729e+02  3.6987689525758860e+00  3.4826904785750656e+01  3.6247257584725736e+02  2.5299586366780026e+01  2.2674766635724808e+01  2.4821803370814404e+01  3.0956972258124300e+00  2.8452057912060729e+02  3.0129143809329912e+02  1.0096032113666091e+02  1.8369975959970651e+02  3.0560240132555013e+01  3.2307302613126387e+02  3.3177679484550133e+01  1.1329956375001152e+02  1.1827087995051753e+02  1.2504345296688564e+01  8.0456334723647291e+00  2.3749732175063690e+02  1.3223471390536810e+01  1.3418074698239948e+02  7.0856750263674551e+00  2.0686280906603258e+02  4.9651844407832328e+00  5.0287640114980178e+01  8.0035432315884577e+01  4.4609000079632594e+01  3.5139201749814738e+01  1.6890705822648137e+01  1.7593204727540385e+01  7.6938327473192089e+01  5.7492414190335445e+01  2.0804877200644860e+00  6.7449705980885435e+00  1.7119725904267329e+02  3.1061182841974443e+01  3.4594359246273918e+01  1.3530161178834966e+01  2.2391248652308397e+02  9.9499435866181116e+01  1.7101902637925342e+01  3.2401518580525980e+01  2.4328579741318427e+02  4.6044040934082542e+00  1.1708965132194820e+01  1.8880652793811311e+02  4.0177800830819302e+02  2.7129076535861748e+02  3.6296448694560905e+02  1.8635959200891360e+01  2.2933031519407746e+02  2.6213518803717911e+01  1.6590488354802747e+02  2.4988301894723662e+01  1.5175265429566110e+02  4.3761432416514971e+01  8.6358770199929591e+00  2.5885937376501257e+01  1.1186640547174422e+01  6.2027293093156937e+00  3.1010581289851729e+02  2.8135577470310508e+01  8.2247888213425959e+00  1.8552575858043294e+01  2.0916058222907672e+01  2.5984937814201965e+02  6.3777479030146203e+01  2.5236245019618059e+02  1.1241656679007173e+02  1.7230153360202088e+01  2.0467773788792837e+02  3.2361796390079749e+00  6.8497480953380023e+00  1.6679162542896499e+01  3.4823394988314050e+01  1.7568985973180483e+02  1.9519789479659554e+01  1.7197787499489795e+02  2.2713667850221231e+01  1.1489770397035723e+02  3.7224762254782561e+01  1.1737650130293471e+01  2.4518000315910580e+01  1.6396462521019939e+02  7.3483733885062350e+01  2.0444589727787093e+01  2.4297973957639482e+02  2.0781540237503879e+02  2.8806551517377208e+01  2.2472892260250507e+02  2.3165110267886316e+01  5.0992312118126613e+01  1.7210304623847271e+01  1.5848434829539821e+01  2.1563497282123102e+01  3.6299359649258571e+00  2.8138931913980084e+01  6.5182323139992171e+00  3.5100032295394374e+00  2.0046151002504015e+01  5.0342025916403044e+00  5.6815034489979908e+01  1.7610901494114054e+02  2.4140091946251275e+02  1.7022519715053232e+01  2.0179647671873479e+01  4.2206311239049988e+01  1.1585063365429189e+01  1.9115900218111068e+02  1.7707783445753378e+02  9.4204387723825050e+02  4.7381612242081488e+01  5.2385503058226064e+00  6.6067678652463215e+01  8.9819810020394570e+01  1.9221976520717712e+02  3.7960777034386604e+02  5.3929770520382169e+02  4.8201361828459639e+01  2.0636988331736489e+01  2.8744353697943989e+01  5.3313509170085418e+01  5.4086782845283636e+01  6.8497428047707150e+00  2.8155249287345924e+02  1.1393361369878416e+01  3.7051656129914022e+02  3.1909429652014808e+01  6.4116145125543724e+00  3.4232061375086772e+02  1.1826551913779451e+02  1.4189356097421797e+01  1.4902073570991556e+01  5.0558492238795573e+01  4.4971950143839898e+01  4.6441271777447461e+00  3.1511443073639239e+01  1.9786682377107806e+02  1.0659137400530759e+02  1.2740230851692331e+01  9.9791350885017867e+00  1.8985917574054812e+02  2.0583129822275506e+01  7.4828781729203672e+02  2.3941876038294936e+01  2.1543018545696327e+01  9.8179479861702816e+00  2.4514535305793789e+01  2.4776569571386478e+01  1.0416454610085674e+02  1.0227407137949615e+02  4.9790937327555911e+00  1.0278512479400693e+02  4.3759563790185787e+00  6.2870575606344723e+01  1.2791716132762231e+02  1.2063563606528446e+01  3.4494003526469563e+00  1.3515664869516914e+02  2.5439237235316571e+02  1.7916776803820831e+01  2.1001928541504941e+02  7.6274702681751918e+01  1.3903621525303056e+01  1.2265967128586624e+02  1.6517697369195824e+02  1.0240762949633512e+02  2.4203456265571322e+01  2.4791478226149529e+01  2.1294415036667064e+02  2.0743485591853670e+01  3.3475290495562314e+02  2.1737768940593174e+01  2.7551756157731560e+01  2.8364566306393550e+02  1.3722245098960963e+02  7.5190631636963641e+00  3.2197859909568393e+01  1.5457864763830534e+02  3.2089806449937078e+02  9.6105377181215630e+01  6.9407275611540285e+01  3.4569836106617387e+01  6.2766240296074315e+01  2.3619141268802852e+02  7.7612078176154867e+01  3.8454506100463696e+01  3.6414546174388512e+01  4.2743208643836942e+02  2.5852564359325038e+02  4.1498464724733610e+00  8.7957149871208777e+00  6.6982691769020050e+01  1.1421419312751641e+02  2.1314730131766673e+01  5.3142735074923921e+00  7.0864812196495546e+00  9.6082990881007557e+00  1.6773689542461419e+01  1.1431322140585276e+02  4.4952626031142124e+01  3.3473413510365481e+02  1.7262692836042586e+01  6.5207814378136737e+00  2.1506758437271387e+01  2.4059538476018389e+02  1.6966329593130116e+01  9.6122269956284434e+00  2.0835860511418639e+02  1.8115433757780653e+02  2.2237210004030922e+02  1.0478474047208590e+02  1.7734099450834657e+02  8.9293381349557507e+01  5.3171051670134934e+00  9.7826999499017759e+01  1.9325390316282185e+01  2.2530409240692558e+02  7.4334202560229215e+01  1.4978158298446260e+02  4.1328428304339431e+00  5.1760774648556103e+00  1.1256997522501305e+01  9.6516741210424968e+00  1.6016093189194686e+02  2.6589588398353978e+01  1.4876507474896286e+02  1.8723514871468936e+02  1.2404293264180168e+02  1.7738737330360753e+01  1.8362645482065400e+02  8.3446538349133334e+01  4.6597477494380204e+00  9.4879048229092319e+01  1.6595837455537554e+02  2.1698131693158622e+01  3.7263582914820255e+01  1.8754635969020118e+01  1.3950062407187878e+02  3.2525343872246242e+02  2.2108801964857273e+02  5.0534435387828772e+01  8.0810871996793480e+01  1.4235848234266561e+01  1.7225077122988914e+01  2.4457531750518822e+01  2.3286272850220094e+01  1.2822508194712968e+01  2.1030167191395240e+01  7.8027698217975072e+01  2.5854510310546237e+02  2.3340320385042570e+01  3.5293849773126396e+01  2.2112597498712219e+01  1.8086941456569352e+01  1.8633254538862437e+02  6.4225617807182209e+02  3.5700080551580930e+02  2.2665959307051997e+02  1.4294726480109661e+01  1.6925451286699786e+01  2.0982889725334686e+00  1.7257933091312818e+01  2.0088691920112566e+01  2.1624393573147419e+01  4.3789741269786262e+01  1.7902049801397883e+01  1.9934533035018191e+01  1.3424166758441919e+02  2.1375117835013927e+02  2.2784047964858928e+01  2.5463879904834691e+01  1.7022619189818218e+02  1.5429827969869271e+01  5.8118887548442126e+02  2.9014221587660563e+02  6.4544042690883131e+01  8.8354769576446905e+00  2.7346668467081130e+01  4.0967210719570915e+00  1.9802469323785353e+01  3.7834666933819836e+00  2.4562722169490904e+01  3.2750288456502403e+01  2.5434597182254674e+01  6.2423002661617950e+00  1.5441557786213227e+02  1.0571806778553102e+02  5.1567884611978634e+01  3.9256676704241244e+01  7.6631686293926094e+01  1.9415569258376047e+02  2.1120236929880420e+01  3.1638637180175721e+01  2.3427698086775905e+02  1.6326365377086657e+02  1.5745009825122528e+01  3.7596227845659485e+01  4.8390839355721354e+01  4.0063584042795435e+02  1.6059258616436648e+02  2.0207108295382693e+02  1.1097254224603726e+02  3.0172817769078719e+01  7.1036997746677955e+00  9.8660400134753043e+00  9.0470726016906823e+01  1.4903298327898980e+02  2.9533240722403765e+01  1.0200884749664004e+02  4.6491590821895699e+01  1.1835965351234124e+01  1.9490692357562494e+01  3.1850116980000550e+01  8.6281617399229891e+00  7.1506630009449316e+02  5.0551978868724895e+01  9.5463359207328242e+00  3.3888659094266455e+02  2.0624788321267701e+02  1.5832742282004401e+02  7.4558917246251140e+00  4.6986071490707566e+00  1.2691571110089223e+01  1.6341284235550987e+01  1.2891540754665627e+02  1.2613891899303605e+01  1.5304584675666444e+01  3.1958078291499465e+01  1.9529443943970281e+02  1.3231429385034696e+02  8.9674234564743500e+00  2.9364782146542615e+02  1.7801074660376440e+01  8.3605995271460841e+01  1.9606426468051012e+02  1.4297163997521201e+02  6.1951637055595484e+01  2.0853946633583732e+02  1.7984984430474810e+02  5.2132139410693350e+00  1.3881503861419336e+02  2.5714811439148995e+01  7.8505239030357089e+01  1.1039233841058877e+01  1.5267498341877811e+01  1.0444414493817655e+01  4.0885192066911479e+01  1.2717025384073356e+01  1.4429470679856628e+01  5.9997443594412225e+01  1.8175171002961130e+02  1.7942594856830689e+02  2.1398432564041752e+01  1.2359144509350775e+01  1.8949007599593696e+01  9.6078763651401800e+01  3.2733540428655812e+02  9.6204168416515721e+00  1.5647751098696164e+01  3.8914399967631020e+01  2.3113215379257657e+01  6.8647826803384547e+01  3.5524895225655868e+01  5.7139355727334546e+01  2.2937724062220536e+02  3.3570184377543186e+00  1.8711318089389846e+02  3.8709676312547947e+02  3.5799985200713756e+01  2.2496297106414693e+02  1.6723428054861145e+01  2.0217359264005982e+01  1.5725390483501378e+01  1.1743222819645311e+01  6.9029979189766841e+00  4.8560232924852880e+00  4.2481958593352779e+01  4.3766835480291872e+00  6.0226248338702476e+01  1.1594622616405746e+02  6.2739454261385937e+01  2.2069188346335451e+02  2.0353222468154672e+02  2.3058699013466767e+02  2.3058687291181383e+02  2.2776491945057043e+02  1.9794790913065150e+01  1.4514712997255950e+02  7.4426625420070891e+01  2.0454405960191099e+02  1.3990908629354449e+01  2.2702354120040166e+01  2.6656339610567308e+01  5.7879958650939251e+01  2.0333334209262627e+01  3.2293967560486874e+02  2.9434918386635519e+02  2.1504385346588002e+01  2.9956932571568874e+01  3.1340229810742267e+02  1.8792807002417024e+02  1.9002488520346722e+02  5.4354017885728574e+00  1.3323181756197650e+01  3.2363042867469005e+00  1.3079014441469919e+01  1.6719820455420174e+02  2.1599415938851953e+02  2.9200793575960876e+02  1.4559064367165686e+02  8.7323647437619698e+01  1.8888562268560165e+01  1.5562354537191652e+02  1.8804726917974745e+02  1.2990888936152066e+02  7.6049524118885500e+01  1.2258490885525480e+02  8.1958589472172903e+01  3.6029884625455999e+01  1.2289657801338672e+01  1.2567714955005831e+03  1.3691659978994613e+01  1.8785370680345636e+03  2.2825751196518912e+01  3.4020059461303212e+01  1.4727918932367466e+01  6.5367680088777798e+00  1.6362035594102412e+02  6.0631847980559513e+01  1.8813408451934740e+02  1.3510895505783120e+02  1.5805026945648100e+01  2.3755229697169415e+02  1.0876432245274525e+01  1.0043049253205338e+02  1.2588173923144325e+01  9.4845477129251208e+00  1.6911535250353811e+02  1.0639001724454189e+02  3.5250807710583626e+02  3.6196954209571199e+00  2.5092430800573556e+01  5.6853162425533050e+01  1.3758217391052861e+02  2.9159221283098708e+02  1.5571852634039357e+02  1.6482867448211843e+02  2.1610090461940064e+02  9.9891016149085908e+02  9.8087062327726073e+00  2.4329696733172759e+02  6.2983681826980586e+01  1.2524389607224508e+02  1.7269861183139469e+02  2.2097961075351211e+01  1.7016321395245807e+01  4.9868526309594465e+01  1.5651714219378331e+02  3.2616118904448918e+01  5.6371516191982856e+01  6.9082122843287053e+00  2.2291125140969577e+01  7.9087067550015760e+01  1.3481959628946538e+02  1.8666683864966199e+01  2.3512417152398619e+01  6.5710867761784746e+00  3.3998757889622212e+01  1.7368979162316060e+02  3.7339003098858832e+01  7.7119164541563201e+00  8.6455790242904072e+02  3.2558645631443227e+01  1.1611412898593761e+01  2.4643742599383501e+01  1.5920310707579969e+02  2.1060162729210031e+01  2.7785357842858436e+00  4.3587559209091333e+00  1.2688830851517121e+01  1.6713567045109531e+02  1.3562611870618282e+01  2.1156641094630082e+00  3.2810056602217969e+01  1.1624737346393649e+01  5.3650711937415805e+00  7.4499684461300690e+00  1.4793568821833341e+01  3.0708784220431808e+00  2.2386302057334127e+01  2.2344227383276841e+01  8.3916573901655465e+00  1.3950488312836262e+02  5.4816972347229145e+00  2.4787274669289197e+00  6.7066937330311678e+00  5.7176359550557301e+00  3.5634255699949264e+01  7.2072590231910695e+01  2.9911910857038734e+01  6.3000227338184217e+01  1.3313272526449735e+01  1.9470723339853986e+01  1.5292708705997672e+01  1.7179908418250726e+01  1.1265668999451746e+01  8.3435405530530318e+00  1.6962600817052415e+01  5.6303298107212683e+01  2.2728533776655159e+01  2.2042728265597439e+01  2.1866090121848348e+01  1.9601059595827451e+01  1.5848475856326422e+01  1.6087167600042857e+01  2.3043129728982940e+01  6.0425496533185417e+00  3.1552190991309726e+02  1.9723190691397555e+01  3.7488955297645017e+00  2.3419173261289941e+01  1.8286022639641010e+02  2.1274527644133357e+02  2.5467631076808834e+02  1.7392613596324290e+02  1.6572283693617783e+02  1.6335112145653106e+01  7.7549695821049070e+01  9.6290292627596106e+00  9.8907924036222283e+00  1.9913205955508602e+02  5.9862660574481311e+01  6.1691836156681447e+01  3.1254521362133567e+00  1.9307661567632955e+01  4.1822143629405838e+02  4.7729715309749241e+02  1.6754236279014279e+01  1.3144561170986987e+02  1.3964110326886336e+02  9.5349257914941347e+01  1.2818440724902001e+02  2.9102533566966045e+01  5.2893095530826493e+00  2.0452211604686720e+01  2.1367961866177442e+01  3.1326555266332525e+02  4.3354066281195109e+01  7.0829603297104065e+00  1.2693598400800079e+02  1.4902780775693205e+02  5.9680509969124254e+00  1.3749182379705013e+02  3.6493374942223539e+01  2.5853973267245483e+01  2.8248822523395624e+01  1.7309990194918797e+02  1.9808890115438064e+01  1.5372339463473810e+00  2.3687609577120652e+00  3.0062100404195449e+00  4.5756366763807648e+01  1.6712729207218789e+01  1.7520341445259251e+02  9.7466236729121452e+00  2.1762306074399081e+02  5.8266061114679935e+01  1.8153426131792546e+02  3.2809876311317274e+00  1.5615833451518487e+01  1.0974124912886676e+01  1.5478852840108587e+02  1.0335706998352822e+02  8.3729208348303743e+01  1.4915247089367477e+02  1.8515739813107504e+02  4.8749542348758208e+00  3.4889352251500384e+02  2.7385809568448013e+02  3.0257776879073567e+01  2.5362387711406360e+01  1.4696804450386060e+02  2.4138236006806281e+01  9.2716969675167874e+01  1.2076152420834397e+02  1.0249547747489667e+02  2.2531570307028336e+01  1.3208111586490818e+02  7.5736011182899405e+00  1.7941609184408290e+02  1.8919615079363459e+02  1.7407394960624387e+01  1.6506823471946277e+02  3.2415656310314461e+02  3.2721060313257247e+01  4.5157152744790733e+02  4.1716057712277012e+02  2.8993561034863251e+02  2.5704635041619330e+01  8.2693523049551469e+00  1.4472818740900438e+01  8.0931053470713668e+00  1.1800526228276002e+01  7.2727784623115980e+01  1.2223687976396556e+02  1.8384981797327086e+01  5.7452006406268318e+01  1.7035280575918381e+02  4.5237353253260132e+01  7.3095245275584190e+01  3.5689772532260605e+01  8.5333843464276049e+02  1.9566548817886432e+01  5.0838022597810673e+00  4.7418038372795912e+01  2.0336155810051116e+02  1.4487484678208174e+01  1.9231887817853643e+01  4.3589542965224677e+00  7.8350272523257827e+00  2.1328616943048264e+01  9.3332053911241110e+02  2.1421603122919468e+01  3.1879931685113161e+02  2.2170795994462949e+01  3.1851360785930986e+01  2.2538593779631876e+02  1.8876757424069751e+02  2.0270153770290257e+01  4.4393273011745835e+00  7.4087066851795171e+01  3.1365998742413694e+02  2.8164580052287062e+02  1.9806338240178317e+02  1.1690424159436958e+01  2.1401308097765252e+02  5.0419423636218369e+01  6.1383252503651917e+01  3.5827553469823698e+01  3.9911840599166277e+00  1.0877850306143678e+02  2.8660315242155662e+01  1.5255906129376017e+01  4.6120195689600173e+01  5.4589525204752768e+01  3.2236108190421923e+01  7.2399873518800618e+01  1.7009835169226747e+02  1.1118612864490383e+02  1.1881970727885546e+02  1.1073917721566778e+01  2.2659067045008758e+01  4.6579116383291739e+00  4.4204305507196837e+00  2.3288588319279921e+01  2.2480900053918816e+01  2.1705309755977282e+01  2.1623926704869451e+01  1.3654225840138750e+02  2.6796496765650446e+01  2.0302277370173368e+01  3.0370792002318989e+01  1.9709071962188392e+02  2.8997522249977706e+01  1.6512813494983411e+02  1.4820253068055808e+02  1.3798081749095780e+02  2.1689317509352808e+01  1.1803737536165563e+01  9.1787329876043032e+01  1.3440336703254346e+01  1.3675565274500109e+01  1.7249002604541957e+02  4.3216100301055894e+02  1.1986745199090485e+03  2.2868316740437400e+01  2.3498129155448702e+01  2.4085182906654293e+01  2.4693635661123050e+01  2.3560506215119336e+01  2.2360249141359255e+01  2.5496829146103643e+01  1.9185827186595306e+00  1.5940579377046633e+00  2.4857727258992124e+01  6.4125919180675112e+01  3.4713200926587533e+01  5.7512162949615337e+01  1.3945208555424896e+01  3.8791291330160632e+01  4.4106849131422464e+01  5.9207665102239545e+01  8.3372190842312278e+01  5.4296617644851594e+01  6.5551916952254343e+00  1.5219180481922950e+02  2.1532152793458703e+01  2.6024349501927526e+02  1.2796658459461725e+01  3.7724600265605202e+00  4.8689356196202709e+01  1.4066482093602815e+01  </DataArray> 
</PointData> 
</Piece>
</UnstructuredGrid>
</VTKFile>