<?xml version="1.0"?>
<VTKFile type="UnstructuredGrid"  version="0.1"  >
<UnstructuredGrid>
<Piece  NumberOfPoints="758" NumberOfCells="1386">
<Points>
<DataArray  type="Float64"  NumberOfComponents="3"  format="ascii">-1.570796326794897 3.048 0  -1.570796326794897 0 0  1.570796326794897 0 0  1.570796326794897 3.048 0  0 0 0  0 3.048 0  -1.570796326794897 1.524 0  1.570796326794897 1.524 0  -0.04609926118424437 1.524 0  0.7853981633974483 0 0  0.7623485328053261 2.262242601661362 0  -0.7853981633974483 0 0  -0.7853981633974483 3.048 0  0.392699081698724 0.7745759241961347 0  -1.570796326794897 0.762 0  -0.8084477939895706 2.0955 0  -0.68277245543452 0.8915343570675713 0  0.7853981633974483 3.048 0  0.778743707341909 1.468410948960538 0  2.780093748954961e-16 2.285302774973185 0  -1.570796326794897 2.286 0  1.570796326794897 0.762 0  1.570796326794897 2.286 0  -0.9375370967763674 1.47348297960658 0  0.9831575747762593 0.9003629142671278 0  -0.3926990816987241 0.4064697549061488 0  1.177419588818055 1.905 0  0.3692901340097942 1.880893989147954 0  -0.4920225169641509 2.564371687128368 0  0.3926990816987241 3.048 0  1.178097245096172 0 0  1.155705348811136 2.643920532523289 0  -1.178097245096172 3.048 0  -1.178097245096172 0 0  -0.1391296372266528 0.8873724190154949 0  -1.10527745318919 2.528282743051346 0  -0.9817477042468103 0.4742759268549471 0  -0.3416666987802651 1.923944646262223 0  -1.570796326794897 1.905 0  -1.156555306160469 1.030861936336814 0  0.7648449098493205 0.4764142032227 0  0.3926990816987241 0 0  -0.4820376416180818 1.326151321396512 0  0.06374421723344185 0.4545169930886408 0  0.1972735722393064 1.163324878565267 0  0.3900417218314142 2.566922767651637 0  1.570796326794897 0.381 0  1.188877612935585 1.295195418509834 0  1.179914028402171 0.5308585702661928 0  0.7660075594126428 1.865233039449035 0  0.6330293131838399 1.095171663968746 0  -1.201232463242587 2.144287146570887 0  -0.3926990816987241 0 0  -0.3926990816987241 3.048 0  1.178097245096172 3.048 0  0.7684409382397209 2.649499271873753 0  -1.236954997304436 1.7145 0  -0.1088573452899617 2.666651387486592 0  -1.570796326794897 1.143 0  -1.570796326794897 0.381 0  1.570796326794897 1.143 0  1.570796326794897 1.905 0  1.570796326794897 2.667 0  -1.570796326794897 2.667 0  -0.6730839067294777 1.743003792473746 0  1.199831389396789 2.275437921225198 0  0.3936837537618041 1.495643752599615 0  0.01539369169800942 1.928544709491661 0  0.4156551272669651 0.4219033286010089 0  0.3401546043708642 2.225103550856524 0  -0.3379897306391274 2.262671266279809 0  -1.23624174049596 0.7000907110925838 0  -1.265224057170889 1.360131453617764 0  -0.1224339018241312 1.210043725539656 0  1.289286200625578 0.9918698881707442 0  -0.7751142346211329 1.197848666814478 0  1.003546186550495 0.2660297686099683 0  0.1963495408493621 2.808538634159524 0  -0.8079023568959116 2.703551618159924 0  -0.3480226984353056 1.610059855391589 0  1.075147893506229 1.598068412087719 0  -0.8290627893979112 2.399544545867518 0  0.6965048925255637 0.7972100472372819 0  -1.257765094876752 0.3107645483825858 0  -0.6724835324263325 0.5684215760013651 0  -0.3995059642389676 0.7173610149075536 0  0.9136951972244611 1.187564504803626 0  -0.964259350608907 0.8095514380783081 0  -0.7565990314517038 0.2897049735129544 0  -0.9603859887840651 1.834914433810327 0  -0.1457055965762301 0.2521630699436873 0  0.1963495408493621 0.2041911848053476 0  0.6241974196550791 0.231695999252114 0  -0.4098815011312292 1.029160072548571 0  0.9592800715482012 2.452820690856482 0  0.9648684169153161 2.840751931000357 0  0.5890486225480862 3.048 0  0.164631037784102 1.698913854044779 0  0.5664480837073581 2.070920238540226 0  1.374107957806476 1.7145 0  0.9861079629544779 2.102471438422718 0  -1.374446785945534 3.048 0  -1.288827800789186 2.762781313597598 0  1.353232957571468 2.835634774483438 0  1.302158670506274 0.2650078124691045 0  0.1394669809465775 0.8907702620243092 0  -0.5631487221059602 2.830992231257464 0  1.372837635547072 2.483038902756259 0  -0.1493395228831287 0.618617259260858 0  -1.32327048447753 2.378769394323546 0  0.56080204725298 1.699622905297025 0  1.570796326794897 2.0955 0  0.5403456747786348 2.786446773498672 0  -0.9817477042468103 0 0  -0.5847039960246873 2.326882432521036 0  0.1225428891326576 2.526494255738436 0  -0.9817477042468103 3.048 0  -0.5522901559753841 2.071668786267058 0  -1.370864794258017 0.9075071715671403 0  -1.043891045637083 1.250611220450313 0  -0.1652643923634778 2.09141301924679 0  -1.044446740946883 2.764982067459552 0  -0.1610370079820225 1.763280243096074 0  -0.3136912237752232 2.810498886211121 0  0.5400974078002052 2.370472734822523 0  -0.7009161718414544 1.427243880175582 0  0.902907438200502 0.6735032943420574 0  -0.9879196222361604 0.2371379634274736 0  1.319268546233604 0.7412771512308228 0  0.5578373583610097 0.608241627784878 0  0.5756483102040615 1.332636919938113 0  -0.5281701577409 0.2032348774530744 0  -0.266729509930448 2.489223923247521 0  -1.570796326794897 0.5715 0  -0.2430656531629531 1.405631921096758 0  0.253622337931223 0.5884397663452474 0  1.284044721043478 1.50372037617638 0  1.570796326794897 1.3335 0  -0.9904333867980613 2.235882060371517 0  0.9871146764618406 1.395690276854986 0  -1.374446785945534 0 0  0.3981951765262902 1.020833864419675 0  0.1670583512016766 1.405384478716078 0  -1.330327693484763 1.938638984813805 0  0.2106653067452682 2.040805097078886 0  1.570796326794897 0.5715 0  1.334822181490566 2.081373939821734 0  -0.9303227889097604 1.033236710715967 0  -1.34639228476592 1.150776798768373 0  -1.570796326794897 0.1905 0  1.106697207481837 1.099709897393925 0  0.4137866939027022 0.2104288000383385 0  -1.570796326794897 2.0955 0  0.9761377489246634 0.4754251272674608 0  1.377108465632662 0.4605024587280874 0  1.108114944719677 0.7297638044096917 0  0.3695908229138113 1.285681859811955 0  0.9799112840676307 1.800306505551499 0  -0.001696842075803034 1.042028929293442 0  1.366537356420357 1.185723700290463 0  -1.385029840108318 0.47625 0  0.05842649915411911 0.6874537157920781 0  -1.183268988745763 0.4997334438341218 0  -0.6073502281622543 1.081347079085406 0  -1.026941765261019 2.031536576622642 0  -1.570796326794897 2.8575 0  0.8159726599830506 1.011928543199529 0  0.7652782693277244 2.849245002237192 0  -0.5252326280373281 1.520125074885265 0  0.7648326174724897 2.063743853392348 0  0.757099741434616 1.666331708950521 0  -0.1963495408493621 3.048 0  -0.005410422648647092 2.843333256403111 0  -1.395368347654653 2.19075 0  1.374446785945534 0 0  0.9817477042468103 3.048 0  0.1963495408493621 0 0  -0.1963495408493621 0 0  0.5890486225480862 0 0  0.1963495408493621 3.048 0  0.9817477042468103 0 0  1.374446785945534 3.048 0  -0.5890486225480862 3.048 0  -0.5890486225480862 0 0  -0.06865319188571758 2.471928549109083 0  1.159049337209348 2.838090892449816 0  0.5817075150535711 2.596909954318943 0  0.7656515661107315 2.455866896253367 0  0.9620790410056582 2.647119292933887 0  0.3676829480103987 1.68739481709134 0  -0.8886101495223063 2.878912500124773 0  -0.3317793704126089 0.1873756770788371 0  -1.383208664444332 2.577695923010364 0  -1.043597917648523 1.648216005744782 0  -1.362178343413552 1.546177620526679 0  -1.570796326794897 1.7145 0  -0.8462722504471433 1.648434957877788 0  -0.588076822054871 0.3899352838051667 0  1.570796326794897 2.8575 0  -1.570796326794897 0.9525 0  1.570796326794897 0.1905 0  1.570796326794897 1.7145 0  1.570796326794897 0.9525 0  -1.570796326794897 1.3335 0  1.570796326794897 2.4765 0  -1.570796326794897 2.4765 0  0.8103777117362174 0.287468585434799 0  -1.145334531235929 1.881885620422454 0  -0.8620560674467429 0.6361265362229395 0  -0.321688879263093 1.207848147265888 0  -0.7798551871678058 1.904240998338365 0  -0.4724954359209014 1.769587110195458 0  -0.667402576232105 2.495985359319255 0  0.5365063314111709 0.8945566719544227 0  0.1855702280441107 2.342745654422604 0  0.55510120733165 1.88540118775351 0  1.188295809121239 2.460939894898248 0  1.38587897409014 2.260870763688798 0  1.383978812419919 1.901097375082534 0  -0.2265735189171196 1.049795314962436 0  0.7387890113368257 1.246392780742437 0  0.5763234466275948 1.516457524623135 0  -0.203279258075353 0.4348372558382012 0  -1.179202350299698 1.523245956950107 0  -1.151844216720993 2.318990544544152 0  -1.410806081599612 0.6547540757597369 0  0.04190096621848406 2.108399609871347 0  0.5925649981629265 0.4343292987553075 0  0.2371113691258682 0.4102816185532077 0  1.334103818253725 2.657728219912091 0  0.9405077369493808 2.275181409651143 0  -0.633962040105568 2.669303984283053 0  -0.6045614816381242 1.904349918307267 0  1.159697673803787 2.079238591118184 0  -0.004643801590645341 1.347662554528907 0  0.3691400131247499 2.395423267764724 0  0.3855005143298051 2.055603978165229 0  0.01839821075864462 0.1788084577298442 0  -0.9568120219060965 2.61629404172056 0  0.1783135820912846 1.871116340262054 0  0.3649950158263953 2.745288921627024 0  -0.3142054567155264 0.5671999812317062 0  -0.4933549623779417 0.564740705097546 0  0.06092775470575962 2.685867440722903 0  -0.1801827362748675 2.337517890002858 0  -1.063355415037434 0.6386189748554 0  -1.205242865599393 0.8676070232612285 0  -0.4176020549597784 2.412196127179313 0  -0.3347051678178828 2.093252344225509 0  -1.427772711006951 0.2857500000000001 0  0.8835729338221293 0.1362887052191026 0  -0.6831011505337878 0.1389086130988801 0  -1.403875662049666 1.77648180985222 0  1.394165436236593 1.362588987767805 0  -0.5007942298153729 0.8700626692351643 0  -0.6093220848169366 0.7321530406295067 0  0.007534593095922887 1.760126887057542 0  -1.276272015520854 0.140425968067263 0  -0.7270478511000733 2.847016806985676 0  1.436331331726002 0.85725 0  -0.1770320080670663 1.927167796173981 0  0.7200726153501196 0.6345534912379586 0  -1.099983122078282 0.3577316115390257 0  0.2324759135153202 2.648405702327079 0  0.9054371869972004 1.582409569434113 0  0.5000672234640285 1.188708149930449 0  -0.340793734207542
[...]
<PointData  Scalars="Elastic Energy"> 
<DataArray  type="Float64"  Name="Elastic Energy"  format="ascii">2.7529215566928082e+02  2.9164540894970656e+01  2.9224534715342539e+01  2.6829523795995061e+02  8.9806153434467717e+01  2.0092793406078720e+03  2.5438017521744761e+01  2.5840024500179176e+01  2.1918835483034360e+02  4.6978424951486168e+00  1.0829742565287344e+02  4.7020479608518491e+00  1.7103695618468226e+01  2.4510327512684078e+01  2.8585843004972542e+01  1.5327029965120946e+02  1.7256905723546385e+01  1.3892891690492588e+01  6.7685403121793669e+01  2.8605718864508907e+02  3.8088464659151491e+00  2.8869182778623216e+01  3.4067370960112151e+00  2.2292546712306361e+01  3.6235776718964465e+00  2.7440061081722007e+01  2.5309796844191485e+01  3.0889234705108404e+01  1.8263443368277876e+01  6.9249075838589718e+01  2.2509947241471490e+01  1.7201515802427744e+02  1.2465308814566622e+02  2.2465963390329335e+01  1.4899277916182795e+01  1.8087193415666979e+02  7.0436818111779642e+00  4.3758384135076362e+01  1.8476836726620625e+01  8.3294195479823490e+00  6.0566960751325079e+00  2.4405736356982072e+01  1.1767819426590491e+02  3.4643999488826793e+01  5.7407330793148930e+01  5.6424056748870072e+01  2.8868976027775791e+01  7.4394849471152424e+00  1.6182364816792468e+01  1.5955137693590271e+02  3.0376504165117918e+01  4.7913723081728854e+01  2.3612840911564977e+01  6.5587417294754985e+01  1.2310918056661328e+02  2.7855805314316857e+01  8.3978171670001860e+00  3.0223672494570354e+02  2.7677926941157015e+01  2.8789587346516036e+01  2.7340301445404670e+01  1.9287779473966012e+01  3.6975099205090565e+01  3.6968383475970477e+01  1.6387638362812891e+02  7.4483461379530681e+01  1.5321534572607757e+02  2.6107559710641067e+02  2.6163834658208078e+01  6.9257515672301778e+01  7.7160377429779416e+01  1.7194736503383879e+01  1.1439035235699576e+01  1.0185800932021644e+02  1.7170883429529557e+01  2.2280011249152928e+01  1.1198860227261024e+01  1.9031540506110125e+02  3.4988154131683991e+01  6.8751764335882569e+01  1.0866825952744660e+01  1.0105982895518291e+02  1.4430271631325976e+01  2.3005415820064073e+01  1.1572343505665135e+01  2.4070408729760267e+01  7.0917860243073099e+00  3.7099450731920922e+00  5.4583565226969855e+00  8.5823867241771424e+01  4.7858683887554868e+01  4.7443976788803496e+01  9.4590033953306456e+00  3.5700800968823927e+01  1.4770762141585229e+02  7.1611594265680665e+01  2.2017071015232474e+01  1.7360800594812812e+02  3.6753725746710600e+01  1.5223597514626162e+01  1.4032622292013627e+02  1.9410755013577725e+02  1.6428734723218557e+02  1.5950394916169094e+02  2.4829546744368674e+01  1.4979815989776485e+01  1.4218464320646959e+01  3.9534161425888598e+01  2.4314092887112626e+01  4.0586209665078343e+01  1.4980571124909105e+02  1.0698638479827153e+01  1.3950217568861031e+01  1.4188176088370264e+01  1.4573006545541100e+01  2.6162453109987376e+02  5.0295690141489700e+01  3.6039194827832475e+01  2.2811310126176437e+01  3.5199780877308835e+00  2.0131266596904393e+02  1.2963911134142057e+02  1.7934058796189487e+02  9.8336784027818496e+01  1.0022178221966952e+01  8.0639113677524634e+01  4.1801899589292733e+00  1.0727964975047096e+01  2.1417947080641891e+01  1.9286533897172024e+01  9.0404910365535500e+01  1.5222145333864251e+01  1.3908672895318944e+02  2.8277565115461108e+01  1.5089142565748628e+02  2.6249858971373406e+01  1.1502002002031695e+01  2.6246250464565168e+01  1.5199120740546309e+02  9.6483687292539759e+00  2.6945070914857798e+01  3.5287312190124538e+01  1.5505950720827559e+02  1.0977989895861732e+01  1.6313114465379411e+02  2.8666243199338069e+01  1.3931467290789389e+01  4.5722374973557534e+00  1.9320704805731058e+01  2.7876302149675244e+01  5.2847720337020343e+00  2.6147930847199316e+01  1.1215572053167222e+01  6.8751917637590392e+00  2.5783860858597130e+01  9.1747460860575707e+00  1.1414898038013109e+02  7.2431958433010948e+01  1.4690671084535943e+01  2.0321801824980970e+01  2.5929800060087899e+01  1.9846205245726313e+01  1.6848547547828488e+01  3.2092823213104232e+01  1.0030051075050905e+02  1.4142335883969113e+02  1.0373982315316109e+01  7.0101713218226021e+00  1.5819923578400000e+02  1.5269133204176879e+02  1.4311743446721576e+02  2.5713022014592997e+02  4.3625190315506376e+02  1.1158753958825580e+01  2.7094754742541173e+01  5.1515436227336536e+01  6.6021583686836138e+01  6.6804482595664737e+01  3.9783005291064901e+00  2.1230620792141934e+02  1.4384511477678837e+01  1.9808252777377325e+02  2.2522975843364812e+01  3.7430396745718202e+00  2.8748227033975809e+02  1.6155190728901999e+02  4.7527509362373932e+00  5.8676298959136041e+01  1.1165642247277657e+02  4.9432794899913922e+01  3.0295230977059791e+01  3.4322672868383670e+01  5.1879858424592136e+01  2.1403607000855999e+01  1.6631404782736144e+01  2.3827954666974794e+01  9.0011598895526319e+01  1.4401338995305752e+01  1.2516801767934167e+02  2.8326358377738007e+01  2.7787345300310477e+01  2.3758641080628525e+01  2.8872724854083788e+01  2.6619289584847042e+01  7.9656720471729718e+00  5.2101186626142812e+00  5.0815263762302809e+00  2.8587762112789463e+01  4.4418122693104660e+00  7.9271070930554018e+01  1.6805244489769319e+02  6.5242455244041480e+01  1.8568821307843656e+01  2.4857250817985168e+01  2.0735215347130651e+02  8.0566863363403300e+01  1.2027804423563998e+02  1.4777630570617616e+01  1.2717347685664480e+01  3.0767012978727326e+01  3.2225349541243226e+01  1.5598917209945199e+02  3.3473020898681042e+01  5.6163885466659833e+00  1.1669711646027905e+02  2.6030586351711815e+01  2.7863022463271676e+02  1.4883221498386003e+01  3.4344912306546796e+01  1.0671927867846091e+02  1.6590211857825560e+02  2.4189169751158435e+00  1.1121574978455322e+02  5.6282022571180313e+01  1.8822238543944016e+02  6.4290562952469131e+01  3.1453003371019580e+01  5.5886907701627010e+01  1.3464899467885172e+02  1.6792852444457159e+02  6.6756678552956501e+01  2.6777181715229119e+01  2.2172790842751532e+01  3.4775023544416325e+02  2.1152355473620534e+02  8.1435627211196895e+00  1.3060982633073532e+01  4.0384605434133640e+01  6.6946811322569303e+01  2.7702007137810185e+01  7.0832159446504894e+00  4.6489714358810934e+00  1.6240222259413272e+01  2.0494679089546000e+01  2.5648270631003484e+01  1.8128223711580993e+01  2.7372838648606694e+02  2.3135354192636317e+01  2.2485092854824185e+00  2.6168089962385398e+01  1.7475974932345318e+02  1.0040296163549844e+01  1.4795198147392890e+01  1.7825240267428103e+02  5.1387336844526303e+01  6.0597868061538051e+01  8.5932351055358041e+01  1.5235545659606785e+02  1.5911129509051118e+01  4.8615122870203633e+00  2.0393831595418291e+01  7.4675757687546621e+01  5.2996632584669719e+01  1.4566801399030094e+01  2.5759685804830593e+01  8.0872485747541276e+00  8.5615262763311488e+00  1.5890061555145898e+01  1.4802592282289945e+01  1.5067379091522321e+02  4.5682961759727858e+00  1.5969581316352250e+02  1.1287854074081686e+02  1.7028091473395585e+02  9.3568134163996621e+00  2.4465974364259331e+01  2.1564922870513950e+01  5.6524350971515602e+00  4.8629410466234823e+01  1.7599009329513234e+02  2.5251378463603562e+01  6.1381548282508916e+01  2.2035304756720208e+01  9.0634207718056672e+01  8.5572507203280125e+01  5.3895617488472936e+01  2.4573276221956004e+01  1.3912201992682239e+02  5.9201357479122535e+01  6.9076803217757572e+00  1.6306609966656112e+02  4.2125568189265605e+00  1.8295595659710859e+01  2.6347039448759855e+01  1.8808411808342129e+01  2.0472381456254632e+02  1.5943591176273905e+01  2.7728139102446889e+01  2.5754708645639798e+01  6.8255363874712982e+00  1.4966576257624993e+02  1.8033180169505255e+02  8.1292121557752679e+01  1.3480448778924293e+02  4.0565268770219189e+00  3.5236783587350629e+00  5.2443393256288422e+00  2.3027128499445137e+01  2.6125265890018643e+01  2.7832650318365271e+01  3.1811510957279481e+01  3.9904075910075214e+01  2.6040983511059824e+01  1.9521911264747402e+01  2.3254744555745432e+01  2.4759544264598450e+01  7.6872720884685926e+00  7.8698521062539385e+01  2.1449496649648690e+01  3.9460921521208701e+02  2.0392974138145797e+02  2.2089816468454028e+01  1.2903816186663427e+01  1.4574323542383928e+01  8.1618347492559113e+00  8.8861179364271035e+00  5.7624838288081230e+00  4.2588301109395111e+01  3.8203789818849735e+01  1.9286777550570047e+01  3.9323814557249772e+00  3.0968071417955336e+01  1.6833585363182955e+01  1.2324827237980317e+02  5.6510506966946018e+01  9.1383605142107420e+00  1.5801839286158915e+02  8.3926111339883718e+01  3.6118452554167519e+01  1.1319418396202538e+01  1.4717457361484588e+02  2.1489240169456068e+01  2.9040139302806551e+01  1.2470025313386805e+02  8.2542980202864101e+01  1.6754408874132005e+02  1.2283106496226154e+02  1.5270506238807678e+02  9.0846075703500048e+01  1.8930032663599793e+01  4.9574475638044454e+01  1.5670625419549842e+02  1.6053272276655616e+02  8.6191977764076114e+01  5.5583897624511522e+01  6.7537558708089191e+00  1.0472064183623054e+01  7.2117716180325175e+01  9.4931733790952517e+00  1.2679310722446523e+01  1.8690906949221090e+02  1.6475788719487483e+02  1.3847695071796023e+01  2.8411261969749808e+02  3.4881113278893416e+01  4.6916620649503301e+01  1.2783948269318676e+01  8.8941754436319975e+00  3.0164827690515057e+01  2.1657999015767505e+01  4.2506407152904188e+01  2.2536394774907276e+01  1.1755989967679838e+01  3.2954662198159674e+01  1.5807107254187105e+02  1.9746141677401280e+01  3.8784223668139597e+00  2.2315275422038610e+02  6.6747079559129077e+01  8.3123169606912995e+01  7.0256521598747653e+01  4.1917571256457720e+01  9.2882256576637801e+00  1.0824183462918192e+02  1.4487714895901067e+02  2.1172098017774577e+01  7.4948659657901857e+01  1.5200453898435552e+02  1.6201819276402358e+02  5.2669808459698167e+01  2.5753264022599165e+01  7.3401586526762186e+00  2.4818744574152618e+01  1.8238040775546740e+01  1.8829980247833102e+01  1.5008096496759588e+01  9.3867984450327000e+01  1.9738680450621516e+01  2.6365605458090581e+01  2.2317994320744528e+01  8.2219157160239096e+00  1.8916417770690270e+01  2.7264253827792737e+02  1.3697123881989887e+01  2.0761571358452894e+01  5.5143340809057840e+01  2.4926051778849505e+01  1.3186060281392579e+02  1.3946667803917268e+02  1.1858362896011867e+02  1.7416916441230345e+02  4.7275679055333288e+00  1.6693191521609810e+02  3.2168992716115116e+02  4.6087382752535746e+01  1.6010548268530283e+02  6.6719336662905757e+00  8.6155296647733390e+00  2.0277870909191474e+01  1.5863841518283232e+01  4.0049019334527152e+01  1.4016560876224686e+01  2.0622335253150606e+01  3.8364742663598861e+00  7.1500378056773544e+00  1.9014309396192768e+01  7.7256019015523139e+00  1.6823103123966845e+02  3.6558300201164066e+01  4.8973977198787708e+01  1.6540141524293475e+02  1.0417802811050990e+02  7.3414316321951844e+01  1.6397073142449798e+02  1.5393356657551158e+02  6.5485131002006085e+01  9.7237545191316279e+00  2.1236745502057012e+01  2.1310035415093317e+01  1.6165197865001358e+02  9.8085087263611914e+00  2.6464583464954649e+02  1.5626266656053457e+02  2.6570042254179970e+01  1.0146804755628168e+01  2.4661877751798960e+02  9.1307089077474572e+01  4.6541657098086183e+01  4.9710041452925182e+00  7.1377492605223329e+00  3.8312737829623904e+00  2.4703609239518478e+01  2.6567910256616930e+01  1.7340336021580617e+02  2.4514906656618444e+02  1.0735074686193090e+02  6.2343206003800546e+01  1.1927453640710610e+01  8.6694467124846966e+01  2.9679586078222044e+01  3.9375769845278079e+01  2.0150861079568756e+01  1.6401690527005218e+02  1.3114595402874002e+02  2.2912910315104380e+01  1.3890870931928697e+01  2.1491337025317205e+02  2.6624070711041792e+01  1.0287388392849009e+03  3.0483535157737990e+01  2.8594154195421133e+01  1.8216734852173872e+01  1.6021238146643991e+01  1.7214482550623333e+02  2.3850073389350715e+01  1.0367379514748751e+02  1.4879928901158144e+02  2.0042151696012720e+01  1.3528884852431852e+02  7.6618241819309016e+00  1.3201478222736603e+02  1.5568637595982993e+01  1.1903356076019996e+01  1.1033805395214408e+02  1.4581446501699156e+02  2.8814827184221804e+02  2.2682917688422034e+01  3.6786848625279394e+00  4.9839034201873844e+01  3.8470831026827895e+01  2.2970669470897815e+02  9.3610589892738275e+01  1.1205356615906410e+02  2.3650359173949493e+01  6.3367106256008208e+02  1.3818179266445499e+01  9.4974997763210368e+01  5.1125261703584933e+01  4.0379282815392742e+01  1.2386904312750143e+02  2.7677611526949423e+01  9.0351341235549114e+00  7.4656867043347637e+00  1.4500368218877323e+01  6.4802243676566862e+00  2.6612146823824549e+01  5.2846530048602647e+00  2.6114646917728837e+01  8.8282975902616077e+00  2.7940965883497654e+01  2.2507772630928624e+01  2.4328211301627700e+01  3.9596672446910448e+00  1.5911307562119632e+01  6.6096568007116403e+01  1.6162784111885518e+01  1.8308671966030467e+01  2.3892049394496649e+02  3.6741136207326285e+01  1.5125306420394880e+01  4.6936223237864667e+01  9.3842643888615896e+01  1.4977079254852161e+01  6.4860738210862827e+00  4.1369037230377845e+00  5.9530184806404183e+00  1.6949011518654441e+01  1.8660661498501490e+01  5.1092435671238281e+00  1.2635587626297340e+01  8.1876524567506888e+00  6.9329307127551258e+00  6.7999754547770763e+00  3.7556138269906474e+00  1.7814940432685386e+01  2.7104698941980864e+01  2.1116164345353873e+01  1.3009694987638492e+01  9.6977609039750931e+01  9.5159473156294929e+00  4.6765638604610871e+00  1.1261115649785868e+01  9.6172617717164304e+00  4.3262433145618992e+01  2.2826138841295297e+01  3.9303552740093352e+01  1.1499421149027901e+01  8.5464993496818984e+00  2.5727518774376389e+01  9.2709455690286404e+01  2.2952862892296121e+01  1.5145478263903708e+01  8.8035247603976075e+00  2.7587936830216840e+01  7.5112669071565774e+00  2.8497382712425342e+01  2.7975520236937175e+01  2.7433990649143144e+01  2.5702100446802799e+01  2.1627632656185558e+01  1.9659566788092871e+01  2.5520341156956654e+01  1.0032662276731211e+01  2.6133889029942202e+02  2.3747818617508230e+01  2.6736714869649994e+01  2.8762111323203960e+01  1.0773161934979670e+02  3.5842438773781261e+01  1.0046767120495089e+02  9.7660730503318817e+01  8.0472026717810778e+01  2.1802860769589262e+01  9.8588403488780713e+01  1.4416494391567690e+01  5.5561295032516895e+00  1.3852829022988098e+01  8.4667671061163887e+01  4.0796427606866246e+00  4.4359967041322399e+00  2.5325013587721159e+01  3.4301227229998653e+02  3.7956414694306920e+02  2.0465357487994194e+01  2.3719203375314301e+01  2.4354404894359750e+01  2.1356241858985953e+01  1.1034813615318579e+02  1.5157902968057346e+01  2.1854248875779906e+01  2.6506421405573114e+01  2.8166703124325881e+01  2.4578212915355326e+02  2.1118856663290238e+01  9.5664839253811831e+00  6.8731116027604415e+01  2.7375177081362498e+01  1.0449568941292975e+01  1.4972154894997436e+02  1.2559195147219795e+02  3.0394232608871032e+01  2.5759743912443682e+01  1.2873318760078848e+02  9.8290890099067560e+00  4.1406141035134745e+00  5.2251878460227372e+00  4.5613154323124903e+00  8.6064355525349985e+00  5.7107147730182373e+00  1.3261388388406641e+02  3.0596976357007866e+00  2.1760989190634120e+01  7.7953714253402522e+00  1.5360816565802827e+02  1.5226129089917091e+01  6.9216598809005978e+00  1.5539969646025359e+01  5.1631254559308019e+01  5.7808991488323329e+01  8.8907542175432781e+01  1.5850100942105243e+02  1.0871660682770035e+02  4.5369853082440779e+00  2.9359229854239419e+02  2.2841128734926272e+02  2.1202592733886650e+01  1.6201488935191147e+01  1.3308677112162439e+02  1.4469594952494850e+02  1.4255984243159708e+02  1.4705482118664389e+02  1.5639976979650663e+02  2.6141600024237960e+01  1.7391190647072992e+01  5.7066358745057517e+00  1.9384719374895763e+01  1.4020714354978765e+01  1.2326197821072721e+01  1.3905765516875195e+02  2.7009507214685033e+02  4.1607858040858304e+01  6.8569347189739815e+01  9.6480252254314038e+01  2.3921948638347135e+02  1.6531772617245696e+01  1.1596380666006263e+01  1.9944704215345304e+01  9.3922456370096103e+00  1.0313736397539650e+01  8.9203820825078182e+01  1.1524146112234821e+02  2.8507618173008872e+01  8.2268832376293375e+01  1.5042308312721477e+02  3.8930851137787116e+01  8.9679558317509162e+01  4.3518931683095076e+01  5.2490540260633622e+02  2.5692787817677527e+01  2.8764198351310775e+00  4.1428368631892873e+01  1.5624052635058234e+02  1.8817184588098616e+01  2.5344394456211795e+01  2.2689772389991720e+00  9.1386414481285865e+00  2.8211329010663789e+01  2.4155033042841112e+02  1.3460141317889478e+01  1.8199918038112352e+02  2.8061636969663553e+01  1.5955775401104310e+02  2.8152005000765165e+01  2.8497197760115071e+01  2.6386018719100601e+01  6.8595247937626089e+00  1.3161206533216159e+02  2.6189755972335604e+02  2.3366732063449604e+02  1.5094280898631328e+02  4.3237294340535449e+01  1.7012533040577156e+02  1.1864362793485803e+02  1.2242386906905398e+02  1.8898507387227749e+01  2.8394233835742948e+01  1.4845431330372378e+02  8.9671416454660886e+01  6.2184292344377170e+01  1.0293789199973205e+02  3.7160364098311582e+01  8.7308900925235548e+01  1.8184119388236287e+01  1.3636975689590426e+02  1.7015896662665102e+02  1.5768992409387687e+02  3.2363215175652243e+01  7.9036610634857155e+01  3.2303991800842454e+01  5.5203087978673091e+00  2.8731843998111998e+01  2.8798337177967728e+01  2.8014002794072859e+01  1.7434052206117389e+01  1.6613910899062073e+01  3.9318611917329633e+01  2.9333844627887856e+01  3.1590894378199952e+01  4.8083041033884790e+01  3.2063163609950884e+01  1.2581543452821106e+02  6.0131396251680627e+01  4.7347247144709591e+01  2.4509440183598024e+01  5.0311419916900547e+01  1.8737018594637117e+01  2.4148930727359321e+01  2.4171145049272869e+01  1.6417945626236058e+01  6.8073534657981966e+01  2.1200983566314923e+02  2.8578806065141876e+01  2.8446534238631585e+01  2.7778526511573919e+01  2.8088044260404416e+01  2.8448997502300859e+01  2.8750428579599046e+01  2.6908884300158679e+01  1.3968733788370397e+01  1.3725060149266856e+01  2.6561944264874100e+01  3.8486599251814693e+00  9.9774400635023056e+01  1.1694386755613951e+02  1.9660258907568334e+01  1.0329746111275193e+02  1.1965930352744206e+01  1.2368106936706605e+01  2.2814167174310096e+01  2.3015605976994220e+01  2.6928030861509530e+01  1.3303139115622847e+02  2.4511135952502126e+01  1.8096672592689464e+02  6.3392947555190666e+00  1.8179098998630170e+01  2.4146299716436253e+01  4.6453448315029373e+00  </DataArray> 
</PointData> 
</Piece>
</UnstructuredGrid>
</VTKFile>