<?xml version="1.0"?>
<VTKFile type="UnstructuredGrid"  version="0.1"  >
<UnstructuredGrid>
<Piece  NumberOfPoints="758" NumberOfCells="1386">
<Points>
<DataArray  type="Float64"  NumberOfComponents="3"  format="ascii">-1.570796326794897 3.048 0  -1.570796326794897 0 0  1.570796326794897 0 0  1.570796326794897 3.048 0  0 0 0  0 3.048 0  -1.570796326794897 1.524 0  1.570796326794897 1.524 0  -0.04609926118424437 1.524 0  0.7853981633974483 0 0  0.7623485328053261 2.262242601661362 0  -0.7853981633974483 0 0  -0.7853981633974483 3.048 0  0.392699081698724 0.7745759241961347 0  -1.570796326794897 0.762 0  -0.8084477939895706 2.0955 0  -0.68277245543452 0.8915343570675713 0  0.7853981633974483 3.048 0  0.778743707341909 1.468410948960538 0  2.780093748954961e-16 2.285302774973185 0  -1.570796326794897 2.286 0  1.570796326794897 0.762 0  1.570796326794897 2.286 0  -0.9375370967763674 1.47348297960658 0  0.9831575747762593 0.9003629142671278 0  -0.3926990816987241 0.4064697549061488 0  1.177419588818055 1.905 0  0.3692901340097942 1.880893989147954 0  -0.4920225169641509 2.564371687128368 0  0.3926990816987241 3.048 0  1.178097245096172 0 0  1.155705348811136 2.643920532523289 0  -1.178097245096172 3.048 0  -1.178097245096172 0 0  -0.1391296372266528 0.8873724190154949 0  -1.10527745318919 2.528282743051346 0  -0.9817477042468103 0.4742759268549471 0  -0.3416666987802651 1.923944646262223 0  -1.570796326794897 1.905 0  -1.156555306160469 1.030861936336814 0  0.7648449098493205 0.4764142032227 0  0.3926990816987241 0 0  -0.4820376416180818 1.326151321396512 0  0.06374421723344185 0.4545169930886408 0  0.1972735722393064 1.163324878565267 0  0.3900417218314142 2.566922767651637 0  1.570796326794897 0.381 0  1.188877612935585 1.295195418509834 0  1.179914028402171 0.5308585702661928 0  0.7660075594126428 1.865233039449035 0  0.6330293131838399 1.095171663968746 0  -1.201232463242587 2.144287146570887 0  -0.3926990816987241 0 0  -0.3926990816987241 3.048 0  1.178097245096172 3.048 0  0.7684409382397209 2.649499271873753 0  -1.236954997304436 1.7145 0  -0.1088573452899617 2.666651387486592 0  -1.570796326794897 1.143 0  -1.570796326794897 0.381 0  1.570796326794897 1.143 0  1.570796326794897 1.905 0  1.570796326794897 2.667 0  -1.570796326794897 2.667 0  -0.6730839067294777 1.743003792473746 0  1.199831389396789 2.275437921225198 0  0.3936837537618041 1.495643752599615 0  0.01539369169800942 1.928544709491661 0  0.4156551272669651 0.4219033286010089 0  0.3401546043708642 2.225103550856524 0  -0.3379897306391274 2.262671266279809 0  -1.23624174049596 0.7000907110925838 0  -1.265224057170889 1.360131453617764 0  -0.1224339018241312 1.210043725539656 0  1.289286200625578 0.9918698881707442 0  -0.7751142346211329 1.197848666814478 0  1.003546186550495 0.2660297686099683 0  0.1963495408493621 2.808538634159524 0  -0.8079023568959116 2.703551618159924 0  -0.3480226984353056 1.610059855391589 0  1.075147893506229 1.598068412087719 0  -0.8290627893979112 2.399544545867518 0  0.6965048925255637 0.7972100472372819 0  -1.257765094876752 0.3107645483825858 0  -0.6724835324263325 0.5684215760013651 0  -0.3995059642389676 0.7173610149075536 0  0.9136951972244611 1.187564504803626 0  -0.964259350608907 0.8095514380783081 0  -0.7565990314517038 0.2897049735129544 0  -0.9603859887840651 1.834914433810327 0  -0.1457055965762301 0.2521630699436873 0  0.1963495408493621 0.2041911848053476 0  0.6241974196550791 0.231695999252114 0  -0.4098815011312292 1.029160072548571 0  0.9592800715482012 2.452820690856482 0  0.9648684169153161 2.840751931000357 0  0.5890486225480862 3.048 0  0.164631037784102 1.698913854044779 0  0.5664480837073581 2.070920238540226 0  1.374107957806476 1.7145 0  0.9861079629544779 2.102471438422718 0  -1.374446785945534 3.048 0  -1.288827800789186 2.762781313597598 0  1.353232957571468 2.835634774483438 0  1.302158670506274 0.2650078124691045 0  0.1394669809465775 0.8907702620243092 0  -0.5631487221059602 2.830992231257464 0  1.372837635547072 2.483038902756259 0  -0.1493395228831287 0.618617259260858 0  -1.32327048447753 2.378769394323546 0  0.56080204725298 1.699622905297025 0  1.570796326794897 2.0955 0  0.5403456747786348 2.786446773498672 0  -0.9817477042468103 0 0  -0.5847039960246873 2.326882432521036 0  0.1225428891326576 2.526494255738436 0  -0.9817477042468103 3.048 0  -0.5522901559753841 2.071668786267058 0  -1.370864794258017 0.9075071715671403 0  -1.043891045637083 1.250611220450313 0  -0.1652643923634778 2.09141301924679 0  -1.044446740946883 2.764982067459552 0  -0.1610370079820225 1.763280243096074 0  -0.3136912237752232 2.810498886211121 0  0.5400974078002052 2.370472734822523 0  -0.7009161718414544 1.427243880175582 0  0.902907438200502 0.6735032943420574 0  -0.9879196222361604 0.2371379634274736 0  1.319268546233604 0.7412771512308228 0  0.5578373583610097 0.608241627784878 0  0.5756483102040615 1.332636919938113 0  -0.5281701577409 0.2032348774530744 0  -0.266729509930448 2.489223923247521 0  -1.570796326794897 0.5715 0  -0.2430656531629531 1.405631921096758 0  0.253622337931223 0.5884397663452474 0  1.284044721043478 1.50372037617638 0  1.570796326794897 1.3335 0  -0.9904333867980613 2.235882060371517 0  0.9871146764618406 1.395690276854986 0  -1.374446785945534 0 0  0.3981951765262902 1.020833864419675 0  0.1670583512016766 1.405384478716078 0  -1.330327693484763 1.938638984813805 0  0.2106653067452682 2.040805097078886 0  1.570796326794897 0.5715 0  1.334822181490566 2.081373939821734 0  -0.9303227889097604 1.033236710715967 0  -1.34639228476592 1.150776798768373 0  -1.570796326794897 0.1905 0  1.106697207481837 1.099709897393925 0  0.4137866939027022 0.2104288000383385 0  -1.570796326794897 2.0955 0  0.9761377489246634 0.4754251272674608 0  1.377108465632662 0.4605024587280874 0  1.108114944719677 0.7297638044096917 0  0.3695908229138113 1.285681859811955 0  0.9799112840676307 1.800306505551499 0  -0.001696842075803034 1.042028929293442 0  1.366537356420357 1.185723700290463 0  -1.385029840108318 0.47625 0  0.05842649915411911 0.6874537157920781 0  -1.183268988745763 0.4997334438341218 0  -0.6073502281622543 1.081347079085406 0  -1.026941765261019 2.031536576622642 0  -1.570796326794897 2.8575 0  0.8159726599830506 1.011928543199529 0  0.7652782693277244 2.849245002237192 0  -0.5252326280373281 1.520125074885265 0  0.7648326174724897 2.063743853392348 0  0.757099741434616 1.666331708950521 0  -0.1963495408493621 3.048 0  -0.005410422648647092 2.843333256403111 0  -1.395368347654653 2.19075 0  1.374446785945534 0 0  0.9817477042468103 3.048 0  0.1963495408493621 0 0  -0.1963495408493621 0 0  0.5890486225480862 0 0  0.1963495408493621 3.048 0  0.9817477042468103 0 0  1.374446785945534 3.048 0  -0.5890486225480862 3.048 0  -0.5890486225480862 0 0  -0.06865319188571758 2.471928549109083 0  1.159049337209348 2.838090892449816 0  0.5817075150535711 2.596909954318943 0  0.7656515661107315 2.455866896253367 0  0.9620790410056582 2.647119292933887 0  0.3676829480103987 1.68739481709134 0  -0.8886101495223063 2.878912500124773 0  -0.3317793704126089 0.1873756770788371 0  -1.383208664444332 2.577695923010364 0  -1.043597917648523 1.648216005744782 0  -1.362178343413552 1.546177620526679 0  -1.570796326794897 1.7145 0  -0.8462722504471433 1.648434957877788 0  -0.588076822054871 0.3899352838051667 0  1.570796326794897 2.8575 0  -1.570796326794897 0.9525 0  1.570796326794897 0.1905 0  1.570796326794897 1.7145 0  1.570796326794897 0.9525 0  -1.570796326794897 1.3335 0  1.570796326794897 2.4765 0  -1.570796326794897 2.4765 0  0.8103777117362174 0.287468585434799 0  -1.145334531235929 1.881885620422454 0  -0.8620560674467429 0.6361265362229395 0  -0.321688879263093 1.207848147265888 0  -0.7798551871678058 1.904240998338365 0  -0.4724954359209014 1.769587110195458 0  -0.667402576232105 2.495985359319255 0  0.5365063314111709 0.8945566719544227 0  0.1855702280441107 2.342745654422604 0  0.55510120733165 1.88540118775351 0  1.188295809121239 2.460939894898248 0  1.38587897409014 2.260870763688798 0  1.383978812419919 1.901097375082534 0  -0.2265735189171196 1.049795314962436 0  0.7387890113368257 1.246392780742437 0  0.5763234466275948 1.516457524623135 0  -0.203279258075353 0.4348372558382012 0  -1.179202350299698 1.523245956950107 0  -1.151844216720993 2.318990544544152 0  -1.410806081599612 0.6547540757597369 0  0.04190096621848406 2.108399609871347 0  0.5925649981629265 0.4343292987553075 0  0.2371113691258682 0.4102816185532077 0  1.334103818253725 2.657728219912091 0  0.9405077369493808 2.275181409651143 0  -0.633962040105568 2.669303984283053 0  -0.6045614816381242 1.904349918307267 0  1.159697673803787 2.079238591118184 0  -0.004643801590645341 1.347662554528907 0  0.3691400131247499 2.395423267764724 0  0.3855005143298051 2.055603978165229 0  0.01839821075864462 0.1788084577298442 0  -0.9568120219060965 2.61629404172056 0  0.1783135820912846 1.871116340262054 0  0.3649950158263953 2.745288921627024 0  -0.3142054567155264 0.5671999812317062 0  -0.4933549623779417 0.564740705097546 0  0.06092775470575962 2.685867440722903 0  -0.1801827362748675 2.337517890002858 0  -1.063355415037434 0.6386189748554 0  -1.205242865599393 0.8676070232612285 0  -0.4176020549597784 2.412196127179313 0  -0.3347051678178828 2.093252344225509 0  -1.427772711006951 0.2857500000000001 0  0.8835729338221293 0.1362887052191026 0  -0.6831011505337878 0.1389086130988801 0  -1.403875662049666 1.77648180985222 0  1.394165436236593 1.362588987767805 0  -0.5007942298153729 0.8700626692351643 0  -0.6093220848169366 0.7321530406295067 0  0.007534593095922887 1.760126887057542 0  -1.276272015520854 0.140425968067263 0  -0.7270478511000733 2.847016806985676 0  1.436331331726002 0.85725 0  -0.1770320080670663 1.927167796173981 0  0.7200726153501196 0.6345534912379586 0  -1.099983122078282 0.3577316115390257 0  0.2324759135153202 2.648405702327079 0  0.9054371869972004 1.582409569434113 0  0.5000672234640285 1.188708149930449 0  -0.340793734207542
[...]
<PointData  Scalars="Elastic Energy"> 
<DataArray  type="Float64"  Name="Elastic Energy"  format="ascii">1.7497761420474961e+02  2.9677396860141450e+01  2.9745546335176147e+01  1.7139366880388053e+02  8.8923584302585766e+01  1.8636414826663704e+03  2.4219744352786492e+01  2.4568870296003375e+01  1.7428252821387409e+02  4.3975866304415439e+00  1.2107685504791998e+02  4.4072165779796775e+00  2.0257472162195274e+01  2.2550027350383221e+01  2.8367916349262238e+01  1.5514657990544313e+02  1.5347263177038080e+01  1.6292700765002500e+01  4.7145085678597347e+01  2.7555747474849699e+02  5.4743076711164624e+00  2.8647197146435580e+01  5.6424947780517112e+00  1.4777648800734585e+01  3.9785727818969847e+00  2.6613908128874542e+01  1.6769357486241265e+01  3.2609225613596365e+01  1.4874748665255780e+01  6.6596650372680756e+01  2.2654651429907936e+01  1.5301497073678885e+02  1.2720726436211798e+02  2.2620859636179876e+01  1.5491845929829578e+01  1.6410163183797334e+02  7.3795865747203759e+00  3.8353430398154472e+01  1.9432537376710641e+01  8.7212426732443173e+00  5.6194293835871711e+00  2.4196269697698071e+01  7.8694954865337991e+01  3.6642351700237533e+01  3.0878921480441008e+01  5.0732066028931726e+01  2.9040276453204193e+01  7.8294897680721123e+00  1.6508058083517959e+01  1.4791642485094224e+02  2.3706108971318443e+01  3.5032755502372162e+01  2.3458870292357041e+01  6.3484408455820784e+01  1.2697760315717372e+02  3.7716251559481172e+01  7.4723382473700335e+00  2.9231847125102991e+02  2.7154015897840772e+01  2.8957629266451939e+01  2.6830128255991387e+01  2.0230914268108190e+01  2.1011308566666575e+01  2.0665961089791953e+01  1.5145693968301609e+02  5.6475836542307448e+01  1.5305873264361190e+02  2.4872590133704821e+02  2.5147785961656702e+01  6.0537070438065342e+01  6.8913971578180337e+01  1.7425832295292857e+01  1.1644217892276913e+01  3.8388084075682379e+01  1.7238321695096609e+01  1.7227724219148183e+01  1.1444430195695514e+01  1.8495780367976113e+02  4.6750844231486042e+01  1.0374400498679891e+02  7.0430970384470548e+00  1.1151088476527151e+02  1.2997174170536669e+01  2.3267877242661562e+01  1.0486024038877572e+01  2.2556198780389927e+01  6.3483519096318801e+00  4.0375675087453669e+00  5.1307275521944051e+00  6.4416509195669448e+01  4.8724148037445310e+01  4.7827284252273273e+01  8.7128008790087303e+00  2.7249992966651483e+01  1.4871017216174695e+02  8.7249749361876255e+01  2.0400455084038207e+01  1.5448573878260791e+02  5.1401419337744343e+01  1.5188189545373135e+01  1.1940739911714563e+02  1.5296897028754307e+02  1.3434625272951271e+02  1.2191747581513810e+02  2.5100295251649776e+01  1.5374108808026630e+01  1.1888093519348722e+01  2.7092416227889739e+01  2.6006414872021079e+01  2.8633631108021021e+01  1.6027960608070055e+02  1.2872993350512095e+01  1.1403231517838789e+01  1.4072905981622954e+01  2.1213551114043614e+01  2.5270518756719881e+02  6.0658271573904472e+01  5.0076698754888426e+01  2.2705805232677758e+01  3.6637464974502469e+00  1.8880476669949272e+02  1.3839528265150162e+02  1.6510456735545930e+02  9.4148518929136443e+01  1.1823006606127759e+01  5.6245604393024522e+01  4.2965166111033861e+00  1.0938427012820167e+01  2.1489231172066773e+01  1.7651501110550587e+01  6.1282226806445848e+01  1.4342870147292240e+01  1.3136639923368966e+02  2.8240000749745032e+01  1.4449853938019308e+02  2.6690311486216004e+01  1.1629504650406377e+01  2.5420433090913310e+01  1.3730035505446676e+02  6.8765290477674812e+00  2.7332051849366646e+01  2.7020446791200381e+01  1.5810355332096245e+02  1.0123349480050766e+01  1.5066390385799031e+02  2.8623413484325159e+01  1.1446262217046844e+01  4.6014713204153876e+00  1.9155672229251309e+01  2.8196340088752649e+01  5.7919853137597759e+00  2.5369396170987940e+01  1.3331257745551786e+01  7.2008968229667163e+00  2.5925594860375199e+01  9.6086340222604907e+00  7.0372495197031412e+01  5.1401399249703232e+01  1.0602795380732445e+01  2.0083236811270329e+01  2.6046014075130099e+01  2.2453632782343242e+01  1.7162825716959986e+01  2.5070566105931903e+01  7.9802409536793917e+01  8.4639143039339260e+01  9.3414159913055759e+00  1.1050584951127549e+01  1.3156164671364488e+02  1.5634742740159263e+02  1.1261940139864248e+02  2.4448502010943176e+02  4.2094451561999171e+02  9.8981835312418962e+00  2.7487975830979540e+01  6.1933273939420538e+01  6.5559864515474189e+01  6.6264978885477646e+01  3.6073918551556710e+00  2.0446731451747783e+02  1.4266756525075866e+01  1.5639759471685224e+02  2.1174110610821497e+01  3.4080865181202480e+00  2.7789047965570279e+02  1.5891964395390721e+02  4.9444160230360508e+00  7.0985780839752309e+01  1.2219268611423455e+02  7.9293727459014960e+01  4.1467600674933152e+01  3.3881627761161056e+01  3.5887806361760511e+01  1.3471710318384797e+01  1.6308840485241259e+01  2.3103325886228077e+01  6.5105761416698215e+01  1.3268154043234896e+01  7.6482182757333518e+01  2.7972406324887615e+01  2.8119543995045195e+01  2.3027667681053046e+01  2.8502137929479041e+01  2.5790179155901118e+01  4.9421375849846712e+00  2.6530449083825274e+00  4.9517348419139173e+00  1.9103972683822651e+01  4.3997595213237153e+00  4.8155029691989540e+01  1.5796421316821983e+02  9.3944034826193743e+01  2.6053210869023559e+01  2.1700570556148008e+01  1.9749183239951242e+02  1.0327016799831125e+02  9.8372846210655453e+01  1.1502626616880296e+01  1.3045903755996733e+01  2.1414061031865344e+01  2.3435827013573689e+01  1.2221008794429767e+02  3.4396674989095978e+01  5.6083912862056877e+00  9.4244569247069776e+01  2.5992743671541287e+01  2.6599072249701248e+02  1.3668092193459039e+01  3.4902732007536549e+01  7.9188305671111081e+01  1.5876679280400333e+02  4.1323064563495295e+00  1.2960428718966241e+02  4.0329328772042047e+01  1.4579132519535676e+02  5.7188729477128597e+01  2.7012872074061267e+01  5.6904403820931613e+01  1.4520213634562779e+02  1.5568893105507723e+02  6.2537842488602791e+01  2.6502081500363587e+01  2.0625258169520837e+01  3.3565181835987562e+02  2.0180120652970723e+02  8.5797934175910804e+00  1.3355069753168820e+01  3.5054944249175065e+01  5.9070301878043956e+01  2.7959441523246795e+01  7.0744736138569131e+00  4.2306289502192422e+00  1.6375105379654009e+01  1.9985682941340059e+01  2.2368275065602138e+01  1.6370795513692929e+01  2.6704145726112449e+02  2.3405084886962246e+01  4.5151136988776344e+00  2.5977307315675823e+01  1.6272097538545623e+02  9.1135768583096795e+00  1.5122009156616819e+01  1.7145115115045283e+02  3.3511573903694114e+01  4.2106343634796396e+01  8.0441533998868607e+01  1.3129548741954821e+02  9.7435631581495361e+00  4.6598542861954728e+00  2.1163244241877653e+01  9.0072221224075577e+01  3.7213550336380578e+01  1.2611377603728689e+01  1.7752702037942150e+01  8.5311404395795982e+00  8.9294738693496924e+00  1.6052059638765165e+01  1.5140562008585087e+01  1.1734385491506595e+02  4.5736532130942509e+00  1.4981240135440589e+02  1.1652913680523885e+02  1.6814135149213962e+02  8.5470054034365042e+00  2.1658128963385558e+01  2.1785499742086348e+01  5.5931281114709410e+00  5.2955849267465219e+01  1.7331469202789145e+02  2.4939243479105198e+01  6.1327642935544155e+01  2.1362490272599210e+01  1.1935348485233155e+02  3.1728558520029118e+01  3.7788066111920870e+01  2.3371330112571389e+01  1.4458935587469298e+02  7.1998791203132470e+01  6.5681992860814242e+00  1.4088485400283167e+02  4.3278480028561663e+00  1.8550181355683890e+01  2.6337812516267523e+01  1.6371738380301096e+01  1.9306913391366780e+02  1.8960045120946774e+01  2.5242454353518923e+01  2.5419359196702693e+01  6.4726791993374215e+00  1.3126911348730263e+02  1.2623534786685373e+02  5.3784518237799453e+01  1.1111930725860822e+02  4.2182204204701828e+00  3.7248822944898530e+00  5.7309175628266802e+00  2.3304313222175672e+01  2.6457834850556171e+01  2.8062583737717052e+01  2.8080088151492074e+01  4.1647384515205921e+01  2.6373705984873947e+01  1.3522074998519159e+01  2.0546485183859602e+01  2.4230069333586474e+01  7.5815380411369810e+00  5.8543770222334381e+01  2.0674281041104834e+01  3.7306710724674690e+02  1.5814965939886983e+02  1.9967045531342329e+01  1.4156265262277389e+01  1.5714676668023765e+01  8.5926750943616987e+00  7.4468302090222984e+00  5.8775292921277709e+00  4.3857808338080332e+01  3.7928865444366643e+01  1.8143367667320337e+01  3.5543029570345155e+00  2.2526428231703203e+01  1.9426439848102056e+01  1.3583507721016241e+02  5.6982550896623344e+01  7.1457805686882905e+00  1.4973263829740040e+02  1.0037694118745516e+02  3.6054750595568159e+01  1.3049413393912232e+01  1.2920361891020804e+02  2.1739612309975275e+01  2.6589378259054254e+01  1.4007805563557744e+02  5.2638952576984934e+01  1.5424259900541603e+02  1.0096988751113145e+02  1.5046564664816913e+02  1.0543020937183086e+02  2.6455749166551144e+01  6.2342194223845716e+01  1.6158590827093127e+02  1.5073509239885149e+02  9.9104923313998384e+01  3.6857409190913749e+01  5.9245929765137140e+00  1.0222805959751849e+01  8.7514223060233576e+01  8.6047120870505935e+00  1.2865711853667960e+01  1.2710949624436466e+02  1.6370102747450827e+02  1.4141219794165153e+01  2.7413977047194896e+02  2.1743392966487381e+01  3.3805695892619717e+01  1.4228544119600539e+01  9.3426457039095023e+00  3.2326209350967332e+01  2.1817906374394905e+01  2.9873950681106162e+01  2.1646528959102078e+01  1.1089367929063863e+01  3.2524205084713820e+01  1.4369994534784084e+02  1.2991630927461179e+01  5.4758338750164199e+00  1.9065458512672424e+02  8.0202147368240560e+01  8.0882623545361810e+01  4.8170952614416450e+01  3.0033733097121964e+01  8.0275151808338201e+00  8.6620939046652381e+01  1.1868161914358321e+02  2.1217112548420925e+01  6.8522906431581049e+01  1.6149812819211652e+02  1.6181104167057833e+02  8.2820022431720218e+01  3.8782344504921348e+01  6.7117532977668377e+00  2.0973872757646383e+01  1.8514899589666786e+01  1.8840510560014529e+01  1.1639067640700112e+01  6.9768532486615428e+01  1.4733459759379228e+01  2.6211973587407311e+01  2.1452591847809600e+01  8.5051301153509566e+00  1.1837398629926776e+01  2.6088283222354897e+02  1.3815547967485761e+01  2.0934536323541487e+01  5.5570668964878344e+01  2.4336950492662353e+01  1.3902593061722683e+02  8.9890240577891191e+01  1.2856589127956809e+02  1.5069428893349493e+02  4.7962838334896754e+00  1.6133828104340097e+02  3.1122140639851580e+02  4.6116027328201262e+01  8.0771280952719650e+01  8.9304143345019824e+00  9.7732877921004349e+00  2.0348913276641373e+01  1.5997994409477995e+01  5.2011545956677587e+01  2.0098771248214604e+01  1.6724639168788851e+01  4.3865253806263844e+00  5.5251466725200178e+00  1.5513195230006440e+01  5.5281787234823057e+00  1.5702340553350524e+02  2.7877452600669510e+01  3.4880549696079413e+01  1.1933463380669140e+02  8.1119639200238367e+01  8.7497650336744712e+01  1.5561806876469007e+02  1.1232375429949522e+02  4.5511258976836785e+01  8.9216745986760682e+00  2.0585132852705435e+01  2.0208998564797803e+01  1.3737648291014898e+02  8.3574116987638263e+00  2.5153068621568403e+02  1.5749696126799049e+02  2.6455129356100475e+01  9.2575078779917295e+00  2.3514244097002040e+02  6.4339759653189134e+01  3.2329070229998074e+01  4.7838669180307676e+00  6.6396030826011225e+00  4.0373706302005941e+00  3.6984749938265800e+01  2.2891003204044850e+01  1.4923961558383670e+02  2.3644549082613889e+02  9.8705456149132146e+01  5.6073626723901981e+01  1.0840394297578227e+01  8.0732709971846390e+01  2.4143648241656809e+01  2.8042824553426623e+01  1.4505270273113457e+01  1.3514632276440187e+02  7.0101062778658132e+01  2.1516847138729315e+01  1.3927164050369484e+01  1.3201184317581371e+02  2.8995855295328266e+01  9.4924593866135899e+02  3.1837778115988364e+01  2.8339410200254264e+01  1.7989633855790235e+01  1.6739328409522045e+01  1.6077975216365476e+02  2.3330205146924719e+01  8.3570129067602778e+01  1.3930639921483169e+02  2.0073625996199873e+01  1.5656052018428187e+02  7.0045347246347394e+00  7.4931599684316623e+01  1.5356105617525005e+01  1.2027172399390901e+01  9.9575847503277799e+01  1.4480828457163449e+02  2.7788371492547060e+02  3.2348322603923179e+01  3.8125262778473403e+00  4.7090523140098526e+01  2.5279318018061936e+01  2.1694058438263636e+02  8.2289654501388213e+01  1.0134456402246981e+02  1.5545012333179626e+01  5.9473935866035117e+02  1.3966539793101177e+01  7.1456661261033403e+01  4.7723606596539291e+01  2.7646974625535297e+01  1.0005926911915215e+02  2.7720672271650056e+01  9.1605204553873403e+00  5.6929741724758189e+00  1.7230078717814493e+01  5.9581414185880730e+00  2.1643671824003789e+01  4.9361314455401519e+00  2.5040970169375640e+01  5.8422485220293687e+00  1.9033171504713781e+01  2.5035475042893811e+01  2.6083900285351831e+01  4.1829012775196972e+00  1.7171611759000580e+01  4.6022994073675292e+01  1.4570094045768460e+01  1.8498569557700083e+01  1.6382010501322358e+02  3.6455967552895210e+01  1.5075946883849189e+01  4.8453826427951256e+01  8.2951675357871181e+01  1.5313125786223743e+01  6.9670958545651818e+00  4.5716613943006239e+00  6.6442791538223647e+00  9.3127200172769289e+00  1.8834597320157073e+01  5.5116447875069099e+00  1.0621051556689318e+01  7.6073040029342174e+00  7.3711613817505892e+00  7.1897324908413562e+00  3.9555273831805700e+00  2.5035186371086233e+01  2.6846994298251072e+01  2.0522604218090123e+01  1.3382134819548147e+01  6.4368861734925929e+01  9.8323491715170537e+00  4.9227471059027854e+00  1.1649371679552814e+01  9.9013111152025282e+00  4.3031094273526733e+01  2.0637566757174788e+01  3.9716863745690574e+01  9.8488573205684098e+00  7.8093201602243427e+00  2.6013244420439538e+01  1.2350511973097628e+02  2.2033267242941811e+01  1.5034204664872417e+01  1.2456271851543601e+01  3.3975127161837236e+01  6.1146227512903772e+00  2.8554711962184264e+01  2.8098945886356592e+01  2.7435633968226405e+01  2.5910514592372994e+01  2.1871596812747306e+01  1.9550245990059281e+01  2.5081213825953416e+01  1.0380089080232800e+01  2.3276376219467406e+02  2.3570262456738529e+01  3.6302082851833553e+01  2.8623998567647750e+01  7.7776321310345082e+01  2.2158607715938022e+01  7.6016831673503759e+01  7.6358170055753078e+01  6.2452277146743562e+01  2.2005433246888813e+01  1.3671450394308704e+02  1.4756559462102288e+01  5.3645271308441558e+00  1.2556813079022859e+01  9.2793447427532953e+01  4.2079458773655904e+00  4.9139057256123051e+00  2.5542758353082814e+01  3.3118876767703074e+02  3.6577698339045378e+02  2.0346538244847704e+01  1.4765486156017682e+01  1.9300997510527761e+01  1.8108758429688471e+01  1.0568720277933693e+02  1.2508086741908325e+01  2.1861676448487877e+01  2.6900871345397938e+01  2.8658583285433313e+01  2.3621136145441781e+02  1.9337449703954608e+01  9.5495131370371258e+00  6.9243673994208720e+01  2.2580720715949990e+01  1.0854272680787391e+01  1.3875658730827118e+02  1.4352953473770742e+02  4.5743698606296448e+01  2.4880000306358298e+01  1.1033341594159320e+02  1.0598146531636395e+01  4.4751791410119459e+00  5.5560561995384257e+00  4.6743042054303920e+00  7.5691592739367684e+00  5.5331833617450421e+00  1.1558011190565186e+02  3.9835827188280115e+00  1.9038621221054431e+01  6.3360407555774207e+00  1.4695171508097567e+02  2.2230187661282827e+01  9.5048068044589815e+00  1.5821711702759444e+01  3.5898599894620610e+01  3.3612373437598443e+01  5.8639249329145152e+01  1.3615811286396959e+02  8.1148894246276882e+01  4.3427656046849643e+00  2.8347997326819433e+02  2.1951287756186488e+02  1.9925397450548470e+01  1.4869455738994491e+01  1.0022154304482437e+02  1.5427871110855827e+02  1.0223017198051008e+02  1.4276629592629368e+02  1.5451687568561368e+02  2.5071693450875916e+01  1.0837924790671492e+01  5.3619423950661975e+00  1.8912450013936233e+01  1.2968847867107874e+01  1.1382264062466989e+01  1.1249390093216370e+02  2.5858863585664574e+02  4.1738231666200932e+01  4.0372725214844806e+01  6.3292273389035536e+01  2.2868466910784471e+02  1.9598827139957976e+01  1.1647917902083536e+01  2.0186687496150661e+01  9.1706984796964566e+00  1.0032299170622478e+01  8.8216596343987291e+01  1.1325410356594207e+02  3.4733873908945775e+01  9.1587483698862201e+01  1.3860744690191416e+02  3.7449719268608639e+01  8.8660851131292659e+01  4.3348327969639264e+01  4.9495362301191460e+02  2.5978204871872709e+01  2.4985424607917945e+00  3.9995431292137766e+01  1.5025813726933350e+02  1.8817555611170278e+01  2.5620160249411239e+01  1.9401677670126447e+00  8.9184751235918327e+00  2.8695789627756653e+01  1.6415881448418074e+02  1.3256215675417058e+01  1.4600587487600336e+02  2.8201085479601762e+01  1.1243193387713973e+02  2.2691216692809522e+01  2.3592846195594927e+01  2.6772660097090728e+01  7.0014444731826897e+00  1.3760166651496226e+02  2.5145988799265137e+02  2.2419638300263941e+02  1.4087067793014535e+02  5.5646927458135707e+01  1.4862152141896192e+02  1.3023640110452692e+02  1.3019897000306383e+02  1.5726195285518642e+01  3.9026406782244479e+01  1.4700747892923724e+02  1.0338809665349690e+02  7.4899972063287365e+01  1.1298693598509756e+02  4.6511720117357562e+01  1.2437917639060989e+02  1.2680658418933948e+01  1.1484081169749841e+02  1.6142867699545630e+02  1.5140997748821144e+02  4.2222059795309470e+01  9.3825749336678129e+01  4.3188681364335196e+01  5.5049046755945685e+00  2.8586839648317461e+01  2.9061773850829471e+01  2.8309638604887990e+01  1.6535439547881925e+01  1.8358874574154775e+01  4.0137742104304351e+01  3.0854913248776665e+01  3.1568209212333354e+01  3.4190226799390587e+01  3.1654254578283961e+01  1.1689401130884688e+02  4.3761120248599646e+01  3.2646023026754655e+01  2.4125858541322440e+01  6.1869066407611491e+01  1.5856876648220910e+01  2.3091144337234738e+01  2.3111005216234666e+01  8.5850542057148598e+00  4.0381077448184556e+01  1.3160984280506671e+02  2.8645099673272377e+01  2.8163222302633557e+01  2.7362417383585047e+01  2.7655780176122306e+01  2.8166618971629340e+01  2.9006119044929918e+01  2.6269180763099818e+01  1.5766909187698497e+01  1.5598322536486497e+01  2.5939233157053767e+01  3.6311004383756553e+00  1.1497960544844148e+02  1.2628577420932146e+02  1.9945277201033804e+01  1.1613172268578199e+02  9.7043147301374511e+00  8.6677492542273811e+00  1.6972438615331360e+01  1.9207830664721442e+01  3.6650649327350621e+01  1.2777083827233548e+02  2.3713922013781090e+01  1.4958430346780546e+02  7.7485801138968009e+00  2.5715818831352593e+01  2.4571844582292819e+01  4.2818468843394122e+00  </DataArray> 
</PointData> 
</Piece>
</UnstructuredGrid>
</VTKFile>