<?xml version="1.0"?>
<VTKFile type="UnstructuredGrid"  version="0.1"  >
<UnstructuredGrid>
<Piece  NumberOfPoints="758" NumberOfCells="1386">
<Points>
<DataArray  type="Float64"  NumberOfComponents="3"  format="ascii">-1.570796326794897 3.048 0  -1.570796326794897 0 0  1.570796326794897 0 0  1.570796326794897 3.048 0  0 0 0  0 3.048 0  -1.570796326794897 1.524 0  1.570796326794897 1.524 0  -0.04609926118424437 1.524 0  0.7853981633974483 0 0  0.7623485328053261 2.262242601661362 0  -0.7853981633974483 0 0  -0.7853981633974483 3.048 0  0.392699081698724 0.7745759241961347 0  -1.570796326794897 0.762 0  -0.8084477939895706 2.0955 0  -0.68277245543452 0.8915343570675713 0  0.7853981633974483 3.048 0  0.778743707341909 1.468410948960538 0  2.780093748954961e-16 2.285302774973185 0  -1.570796326794897 2.286 0  1.570796326794897 0.762 0  1.570796326794897 2.286 0  -0.9375370967763674 1.47348297960658 0  0.9831575747762593 0.9003629142671278 0  -0.3926990816987241 0.4064697549061488 0  1.177419588818055 1.905 0  0.3692901340097942 1.880893989147954 0  -0.4920225169641509 2.564371687128368 0  0.3926990816987241 3.048 0  1.178097245096172 0 0  1.155705348811136 2.643920532523289 0  -1.178097245096172 3.048 0  -1.178097245096172 0 0  -0.1391296372266528 0.8873724190154949 0  -1.10527745318919 2.528282743051346 0  -0.9817477042468103 0.4742759268549471 0  -0.3416666987802651 1.923944646262223 0  -1.570796326794897 1.905 0  -1.156555306160469 1.030861936336814 0  0.7648449098493205 0.4764142032227 0  0.3926990816987241 0 0  -0.4820376416180818 1.326151321396512 0  0.06374421723344185 0.4545169930886408 0  0.1972735722393064 1.163324878565267 0  0.3900417218314142 2.566922767651637 0  1.570796326794897 0.381 0  1.188877612935585 1.295195418509834 0  1.179914028402171 0.5308585702661928 0  0.7660075594126428 1.865233039449035 0  0.6330293131838399 1.095171663968746 0  -1.201232463242587 2.144287146570887 0  -0.3926990816987241 0 0  -0.3926990816987241 3.048 0  1.178097245096172 3.048 0  0.7684409382397209 2.649499271873753 0  -1.236954997304436 1.7145 0  -0.1088573452899617 2.666651387486592 0  -1.570796326794897 1.143 0  -1.570796326794897 0.381 0  1.570796326794897 1.143 0  1.570796326794897 1.905 0  1.570796326794897 2.667 0  -1.570796326794897 2.667 0  -0.6730839067294777 1.743003792473746 0  1.199831389396789 2.275437921225198 0  0.3936837537618041 1.495643752599615 0  0.01539369169800942 1.928544709491661 0  0.4156551272669651 0.4219033286010089 0  0.3401546043708642 2.225103550856524 0  -0.3379897306391274 2.262671266279809 0  -1.23624174049596 0.7000907110925838 0  -1.265224057170889 1.360131453617764 0  -0.1224339018241312 1.210043725539656 0  1.289286200625578 0.9918698881707442 0  -0.7751142346211329 1.197848666814478 0  1.003546186550495 0.2660297686099683 0  0.1963495408493621 2.808538634159524 0  -0.8079023568959116 2.703551618159924 0  -0.3480226984353056 1.610059855391589 0  1.075147893506229 1.598068412087719 0  -0.8290627893979112 2.399544545867518 0  0.6965048925255637 0.7972100472372819 0  -1.257765094876752 0.3107645483825858 0  -0.6724835324263325 0.5684215760013651 0  -0.3995059642389676 0.7173610149075536 0  0.9136951972244611 1.187564504803626 0  -0.964259350608907 0.8095514380783081 0  -0.7565990314517038 0.2897049735129544 0  -0.9603859887840651 1.834914433810327 0  -0.1457055965762301 0.2521630699436873 0  0.1963495408493621 0.2041911848053476 0  0.6241974196550791 0.231695999252114 0  -0.4098815011312292 1.029160072548571 0  0.9592800715482012 2.452820690856482 0  0.9648684169153161 2.840751931000357 0  0.5890486225480862 3.048 0  0.164631037784102 1.698913854044779 0  0.5664480837073581 2.070920238540226 0  1.374107957806476 1.7145 0  0.9861079629544779 2.102471438422718 0  -1.374446785945534 3.048 0  -1.288827800789186 2.762781313597598 0  1.353232957571468 2.835634774483438 0  1.302158670506274 0.2650078124691045 0  0.1394669809465775 0.8907702620243092 0  -0.5631487221059602 2.830992231257464 0  1.372837635547072 2.483038902756259 0  -0.1493395228831287 0.618617259260858 0  -1.32327048447753 2.378769394323546 0  0.56080204725298 1.699622905297025 0  1.570796326794897 2.0955 0  0.5403456747786348 2.786446773498672 0  -0.9817477042468103 0 0  -0.5847039960246873 2.326882432521036 0  0.1225428891326576 2.526494255738436 0  -0.9817477042468103 3.048 0  -0.5522901559753841 2.071668786267058 0  -1.370864794258017 0.9075071715671403 0  -1.043891045637083 1.250611220450313 0  -0.1652643923634778 2.09141301924679 0  -1.044446740946883 2.764982067459552 0  -0.1610370079820225 1.763280243096074 0  -0.3136912237752232 2.810498886211121 0  0.5400974078002052 2.370472734822523 0  -0.7009161718414544 1.427243880175582 0  0.902907438200502 0.6735032943420574 0  -0.9879196222361604 0.2371379634274736 0  1.319268546233604 0.7412771512308228 0  0.5578373583610097 0.608241627784878 0  0.5756483102040615 1.332636919938113 0  -0.5281701577409 0.2032348774530744 0  -0.266729509930448 2.489223923247521 0  -1.570796326794897 0.5715 0  -0.2430656531629531 1.405631921096758 0  0.253622337931223 0.5884397663452474 0  1.284044721043478 1.50372037617638 0  1.570796326794897 1.3335 0  -0.9904333867980613 2.235882060371517 0  0.9871146764618406 1.395690276854986 0  -1.374446785945534 0 0  0.3981951765262902 1.020833864419675 0  0.1670583512016766 1.405384478716078 0  -1.330327693484763 1.938638984813805 0  0.2106653067452682 2.040805097078886 0  1.570796326794897 0.5715 0  1.334822181490566 2.081373939821734 0  -0.9303227889097604 1.033236710715967 0  -1.34639228476592 1.150776798768373 0  -1.570796326794897 0.1905 0  1.106697207481837 1.099709897393925 0  0.4137866939027022 0.2104288000383385 0  -1.570796326794897 2.0955 0  0.9761377489246634 0.4754251272674608 0  1.377108465632662 0.4605024587280874 0  1.108114944719677 0.7297638044096917 0  0.3695908229138113 1.285681859811955 0  0.9799112840676307 1.800306505551499 0  -0.001696842075803034 1.042028929293442 0  1.366537356420357 1.185723700290463 0  -1.385029840108318 0.47625 0  0.05842649915411911 0.6874537157920781 0  -1.183268988745763 0.4997334438341218 0  -0.6073502281622543 1.081347079085406 0  -1.026941765261019 2.031536576622642 0  -1.570796326794897 2.8575 0  0.8159726599830506 1.011928543199529 0  0.7652782693277244 2.849245002237192 0  -0.5252326280373281 1.520125074885265 0  0.7648326174724897 2.063743853392348 0  0.757099741434616 1.666331708950521 0  -0.1963495408493621 3.048 0  -0.005410422648647092 2.843333256403111 0  -1.395368347654653 2.19075 0  1.374446785945534 0 0  0.9817477042468103 3.048 0  0.1963495408493621 0 0  -0.1963495408493621 0 0  0.5890486225480862 0 0  0.1963495408493621 3.048 0  0.9817477042468103 0 0  1.374446785945534 3.048 0  -0.5890486225480862 3.048 0  -0.5890486225480862 0 0  -0.06865319188571758 2.471928549109083 0  1.159049337209348 2.838090892449816 0  0.5817075150535711 2.596909954318943 0  0.7656515661107315 2.455866896253367 0  0.9620790410056582 2.647119292933887 0  0.3676829480103987 1.68739481709134 0  -0.8886101495223063 2.878912500124773 0  -0.3317793704126089 0.1873756770788371 0  -1.383208664444332 2.577695923010364 0  -1.043597917648523 1.648216005744782 0  -1.362178343413552 1.546177620526679 0  -1.570796326794897 1.7145 0  -0.8462722504471433 1.648434957877788 0  -0.588076822054871 0.3899352838051667 0  1.570796326794897 2.8575 0  -1.570796326794897 0.9525 0  1.570796326794897 0.1905 0  1.570796326794897 1.7145 0  1.570796326794897 0.9525 0  -1.570796326794897 1.3335 0  1.570796326794897 2.4765 0  -1.570796326794897 2.4765 0  0.8103777117362174 0.287468585434799 0  -1.145334531235929 1.881885620422454 0  -0.8620560674467429 0.6361265362229395 0  -0.321688879263093 1.207848147265888 0  -0.7798551871678058 1.904240998338365 0  -0.4724954359209014 1.769587110195458 0  -0.667402576232105 2.495985359319255 0  0.5365063314111709 0.8945566719544227 0  0.1855702280441107 2.342745654422604 0  0.55510120733165 1.88540118775351 0  1.188295809121239 2.460939894898248 0  1.38587897409014 2.260870763688798 0  1.383978812419919 1.901097375082534 0  -0.2265735189171196 1.049795314962436 0  0.7387890113368257 1.246392780742437 0  0.5763234466275948 1.516457524623135 0  -0.203279258075353 0.4348372558382012 0  -1.179202350299698 1.523245956950107 0  -1.151844216720993 2.318990544544152 0  -1.410806081599612 0.6547540757597369 0  0.04190096621848406 2.108399609871347 0  0.5925649981629265 0.4343292987553075 0  0.2371113691258682 0.4102816185532077 0  1.334103818253725 2.657728219912091 0  0.9405077369493808 2.275181409651143 0  -0.633962040105568 2.669303984283053 0  -0.6045614816381242 1.904349918307267 0  1.159697673803787 2.079238591118184 0  -0.004643801590645341 1.347662554528907 0  0.3691400131247499 2.395423267764724 0  0.3855005143298051 2.055603978165229 0  0.01839821075864462 0.1788084577298442 0  -0.9568120219060965 2.61629404172056 0  0.1783135820912846 1.871116340262054 0  0.3649950158263953 2.745288921627024 0  -0.3142054567155264 0.5671999812317062 0  -0.4933549623779417 0.564740705097546 0  0.06092775470575962 2.685867440722903 0  -0.1801827362748675 2.337517890002858 0  -1.063355415037434 0.6386189748554 0  -1.205242865599393 0.8676070232612285 0  -0.4176020549597784 2.412196127179313 0  -0.3347051678178828 2.093252344225509 0  -1.427772711006951 0.2857500000000001 0  0.8835729338221293 0.1362887052191026 0  -0.6831011505337878 0.1389086130988801 0  -1.403875662049666 1.77648180985222 0  1.394165436236593 1.362588987767805 0  -0.5007942298153729 0.8700626692351643 0  -0.6093220848169366 0.7321530406295067 0  0.007534593095922887 1.760126887057542 0  -1.276272015520854 0.140425968067263 0  -0.7270478511000733 2.847016806985676 0  1.436331331726002 0.85725 0  -0.1770320080670663 1.927167796173981 0  0.7200726153501196 0.6345534912379586 0  -1.099983122078282 0.3577316115390257 0  0.2324759135153202 2.648405702327079 0  0.9054371869972004 1.582409569434113 0  0.5000672234640285 1.188708149930449 0  -0.340793734207542
[...]
<PointData  Scalars="Elastic Energy"> 
<DataArray  type="Float64"  Name="Elastic Energy"  format="ascii">3.8408300505812650e+02  2.8525785643360731e+01  2.8583838084501469e+01  3.7286081926263989e+02  8.9466779536628607e+01  2.1581613031342004e+03  2.6146634835060524e+01  2.6586906501548786e+01  2.5637229463423392e+02  4.9032214574632871e+00  9.7049977160059839e+01  4.9033349051042734e+00  1.5348871459774987e+01  2.6701212057338665e+01  2.8448542695257899e+01  1.4825953638189819e+02  1.9112628787510168e+01  1.2710454141972175e+01  8.8137695739870324e+01  2.9443497040163192e+02  3.1354564214877776e+00  2.8735280942024374e+01  2.2154246790076777e+00  3.1371879044731109e+01  3.2875739670169035e+00  2.7986940063328664e+01  3.4193917436778669e+01  3.2961975626250883e+01  2.1245912333876898e+01  7.1416338840629365e+01  2.2173063166560315e+01  1.8513710577491105e+02  1.2153813750835816e+02  2.2118114636320332e+01  1.6094579324868825e+01  1.9164185884695632e+02  6.6743486239562984e+00  4.9674977321309697e+01  1.6775275843559513e+01  7.9081248494235483e+00  6.4167154872528700e+00  2.4418602347089877e+01  1.5581893779419929e+02  3.2405847018436916e+01  1.0839989257330528e+02  6.0743992339977275e+01  2.8479305890257734e+01  6.9927795414990852e+00  1.5728712651412490e+01  1.6314149980484527e+02  3.8671909228353279e+01  5.9971953119701375e+01  2.3571029487285756e+01  6.7228004146141856e+01  1.1883560662160399e+02  2.1096835184317257e+01  9.9053323222251102e+00  3.1060634302631399e+02  2.7797508517540191e+01  2.8400033124221196e+01  2.7452286329647212e+01  1.7543171480220852e+01  5.6047163365003065e+01  5.6672506260725768e+01  1.6492236724883983e+02  9.0869766349116119e+01  1.2857381228416853e+02  2.7206179573475225e+02  2.6913840462224456e+01  7.6515899877996773e+01  8.3967081600481620e+01  1.6812809017902755e+01  1.1052998179968670e+01  1.6425811493978463e+02  1.6925985144394904e+01  2.8612998910446549e+01  1.0850602906158308e+01  1.9411460460742819e+02  2.6799153565871489e+01  4.8563712439184194e+01  1.6042477454890292e+01  9.1664986946118503e+01  1.5656556046200686e+01  2.2550031301480580e+01  1.2463418758824176e+01  2.5617441330751280e+01  8.3620845118024558e+00  3.3844872170182945e+00  5.7246276251586110e+00  1.0382926974228199e+02  4.6505205931707124e+01  4.6563076162772880e+01  1.0094958468691896e+01  4.6538979201946290e+01  1.4402204735432505e+02  5.9537907444572049e+01  2.3527877933267707e+01  1.8403290831643687e+02  2.7415661833859826e+01  1.4888291129348040e+01  1.5523733808358276e+02  2.2954657400247532e+02  1.8858449472860045e+02  1.9297390237947764e+02  2.4368729456402850e+01  1.6223790305802051e+01  1.6265691489494323e+01  5.2768646465376257e+01  2.2579652098887909e+01  5.2961926383378305e+01  1.3273406623662680e+02  8.5691361681126761e+00  1.6125824149581408e+01  1.4116265438645080e+01  1.0718952473704066e+01  2.6893856321150054e+02  4.3190161658247014e+01  2.7329360060508549e+01  2.2642600985958708e+01  3.6227034215255798e+00  2.1133201583387037e+02  1.2048200354084962e+02  1.9018514394324419e+02  1.0135617337503608e+02  9.6586952226233560e+00  1.0522636902109035e+02  4.0415943874272431e+00  1.0411679985664115e+01  2.1127981455391421e+01  2.0668610583494235e+01  1.2136591724567683e+02  1.5928645595183658e+01  1.4502948692322761e+02  2.8034605765427994e+01  1.2334054041173341e+02  2.5747035792110541e+01  1.1215456192660639e+01  2.6713670844164128e+01  1.6109942852510642e+02  1.3429382134666172e+01  2.6410389812768347e+01  4.6092180657734446e+01  1.3786535331154377e+02  1.2101126685806175e+01  1.7348840112613743e+02  2.8426996384290032e+01  1.6743857691425863e+01  4.6151283062835136e+00  1.9241963038270573e+01  2.7390617048359033e+01  4.7881189541005567e+00  2.6650167521814549e+01  9.0512180496806387e+00  6.5192964653909664e+00  2.5419111392921955e+01  8.7084182332316313e+00  1.5904634726459520e+02  9.1283865312053621e+01  3.2762440186728767e+01  2.0293619509310911e+01  2.5580944447243724e+01  1.7347511540161495e+01  1.6395114344552542e+01  4.0449433560637139e+01  1.1668111935467743e+02  2.0649074793162424e+02  1.1573456297361837e+01  4.8228563954674746e+00  1.6627990713454540e+02  1.4615071821678589e+02  1.6537948680064906e+02  2.6949010267035266e+02  4.4952500971045481e+02  1.2971922058022519e+01  2.6558066176988813e+01  4.4335958339961934e+01  6.5678524298421124e+01  6.6499104035517007e+01  4.3267859407254505e+00  2.1968487059877924e+02  1.4315538663733632e+01  2.3303784224378032e+02  2.3841213325644173e+01  4.0595351267910651e+00  2.9546533238286509e+02  1.6028752654539016e+02  5.3893664571549866e+00  4.9251615355073518e+01  1.0185879254902420e+02  3.5553087560655371e+01  2.2679988873366767e+01  3.4392184532942380e+01  6.8329887107482108e+01  3.0577152173167338e+01  1.6615750932111979e+01  2.3575255281902287e+01  1.1207162021697576e+02  1.5339726692780069e+01  1.7951271990005054e+02  2.8282425868441358e+01  2.7295660939634512e+01  2.3503892935106546e+01  2.8836793451512914e+01  2.7080812170097158e+01  1.2997362273132520e+01  9.8659401159838982e+00  5.1619612159444870e+00  3.8206243043035116e+01  4.4431412158859196e+00  1.2287450571133213e+02  1.7000493264158192e+02  4.6315209239911439e+01  1.3720235326040711e+01  2.8392133127643817e+01  2.1518178469600974e+02  6.4290286279720775e+01  1.3841651673852962e+02  1.8898983762505285e+01  1.2287275608897577e+01  4.5450922972448041e+01  4.2902388143122110e+01  1.7447699031049203e+02  3.2296330734090468e+01  5.9463181137337218e+00  1.3542627635209368e+02  2.5788637726043607e+01  2.8847261105038120e+02  1.5890666193092720e+01  3.3518926067785152e+01  1.3240010242270873e+02  1.6801108367464482e+02  1.9608789694833200e+00  9.5496355255686652e+01  7.0899886734948609e+01  1.9772789475843851e+02  6.9968363913600299e+01  3.6191079854301343e+01  5.4265701259762800e+01  1.2408351743263856e+02  1.7867993665226527e+02  6.9699636783446806e+01  2.6920967571214877e+01  2.3473677474248348e+01  3.5823474999545596e+02  2.1926656217216404e+02  7.6818357877588115e+00  1.2670758520226665e+01  4.4860262721452237e+01  7.3974211919751980e+01  2.7244700210874772e+01  7.0040566631149890e+00  5.0166360004952706e+00  1.5610014290646633e+01  2.0708473043279600e+01  2.9292329775665017e+01  1.9655339822602595e+01  2.7971794439668747e+02  2.2694636423357654e+01  1.4074426632533010e+00  2.6030621389793062e+01  1.8547978995563813e+02  1.0793338312708736e+01  1.4341272929151884e+01  1.8348742663653272e+02  6.9976266932261552e+01  8.3873343089518272e+01  8.9963630852364176e+01  1.6580273601791637e+02  2.3331717618960937e+01  5.0135256915972652e+00  1.9905342209465630e+01  6.2893358639710385e+01  7.2347046504337470e+01  1.6896802181883036e+01  3.5881812575779286e+01  7.6193407045952037e+00  8.1363676398812750e+00  1.5569456578645264e+01  1.4344558814605266e+01  1.7315553648321546e+02  4.9152753362900210e+00  1.6475549804586765e+02  1.2176294259572357e+02  1.6851211792387798e+02  1.0017469655795951e+01  2.8289289328620029e+01  2.1738436565449447e+01  5.6410410144929335e+00  5.1466819211225051e+01  1.7708753969183397e+02  2.5219628871206289e+01  6.0361889466807916e+01  2.2396594576615527e+01  8.5057647828896293e+01  1.5019421503778784e+02  7.4693460490378285e+01  2.5650248340831119e+01  1.3216995143342641e+02  4.9363998508902462e+01  7.1512945594045387e+00  1.5318504100755706e+02  4.3927617481572421e+00  1.7875691529076029e+01  2.6088329010558319e+01  2.1465169359231624e+01  2.1394500256055824e+02  1.5006381126211105e+01  2.9589820447627300e+01  2.5730263841351775e+01  7.1311906840630472e+00  1.6265754793056163e+02  2.3425192625060734e+02  1.1008517696643020e+02  1.5413065422146937e+02  3.9863400940854778e+00  3.5329887192719807e+00  4.7652149792893166e+00  2.2587360681856161e+01  2.5643028462370516e+01  2.7398010182405045e+01  3.4609414748627934e+01  3.7832268025369615e+01  2.5556519478387123e+01  2.7653679576715987e+01  2.7771796849999760e+01  2.4943758207248777e+01  8.1617173690873095e+00  9.5863381876479920e+01  2.1814880832824894e+01  4.1496108611971312e+02  2.3470477716695177e+02  2.4093513832950979e+01  1.1484396726253411e+01  1.4894403074637546e+01  7.7040061126231913e+00  1.0372110751048359e+01  5.6035204822285207e+00  4.0943815445660370e+01  3.8073701010501132e+01  2.0203728742176533e+01  4.2678225759422377e+00  4.2555411632192374e+01  1.4488441304571282e+01  1.1129609512654115e+02  5.5395698754004208e+01  1.2522912282059981e+01  1.6442296220379811e+02  7.0757875108069769e+01  3.5828398913169487e+01  1.1313960065770962e+01  1.5819921965407136e+02  2.1054904145959295e+01  3.0924151354346051e+01  1.1080908756588332e+02  1.1446804241460515e+02  1.7491534766244922e+02  1.4019677264178702e+02  1.5104354996066184e+02  7.8782666756544316e+01  1.4198324074391572e+01  4.0132961142079516e+01  1.4968407277563716e+02  1.6550502048945356e+02  7.5446534022872498e+01  8.5817112921196383e+01  8.0485944729661956e+00  1.0671870755363070e+01  6.0613596988510473e+01  1.0871566984402499e+01  1.2376890096093824e+01  2.4734258357340281e+02  1.5239366227803811e+02  1.3452381730951933e+01  2.9231836627162932e+02  4.9883649648629039e+01  6.0082953041086292e+01  1.1165054956923742e+01  8.4164391436714006e+00  2.7819630436106529e+01  2.1294393332211442e+01  5.4416884577348540e+01  2.2739312305575840e+01  1.2308501435429756e+01  3.3058194104333452e+01  1.6779442701197792e+02  2.8150512025552924e+01  3.4797940290849287e+00  2.3556546880841171e+02  5.6376849955013000e+01  8.4424001746739009e+01  9.2292287200494172e+01  5.3753338020259790e+01  1.1622684417640368e+01  1.2675353628924158e+02  1.6267944641572706e+02  2.0162277602080312e+01  8.3275461137553251e+01  1.2883405575483405e+02  1.5433832423802161e+02  3.5026046269084922e+01  1.9032831345628487e+01  7.8723974213302892e+00  2.7925667442231404e+01  1.7801771005064833e+01  1.8617205160061239e+01  1.8755043601676537e+01  1.1436900545750021e+02  3.7299755632576471e+01  2.6198544252627613e+01  2.2478656311415644e+01  8.8538059995232974e+00  2.7096489562936217e+01  2.8182599791697254e+02  1.3428746509436579e+01  2.0397153004588695e+01  5.4102462379551731e+01  2.5175084444038195e+01  1.2370561915797163e+02  1.6800351106685400e+02  1.0901916944476021e+02  1.9136797985786308e+02  4.6293580598058863e+00  1.7103192282212768e+02  3.3064790796878208e+02  4.5543976082075908e+01  1.8922619739197978e+02  4.9177060396223560e+00  7.7836611019877324e+00  1.9996268873920020e+01  1.5573678972241144e+01  3.1655941623133867e+01  1.0327440376731710e+01  2.4122876351518730e+01  3.3220051046370971e+00  9.5772085622324674e+00  2.3607407660686391e+01  1.0937141679516834e+01  1.7715053334931014e+02  4.7442012981044073e+01  6.6113268792329379e+01  1.5964292037376313e+02  1.2467790731020227e+02  6.2244578419611351e+01  1.6764899085756838e+02  1.7806971459631112e+02  8.6562379607668916e+01  1.0403001983249906e+01  2.1666028066494050e+01  2.2158944003322226e+01  1.4039555148876340e+02  1.1259293354513142e+01  2.7512160513691543e+02  2.0006312387423250e+02  2.6379167802463165e+01  1.1438670261526854e+01  2.5739114017363488e+02  1.1860864548940901e+02  6.2873897092242302e+01  5.1040363238247020e+00  7.5396788428007770e+00  3.6222303952917136e+00  1.8236831692902310e+01  3.1126315210462124e+01  1.9067646131338864e+02  2.5224286235838096e+02  1.1414022214927249e+02  6.7176012903605553e+01  1.2835493516019174e+01  9.6083734151227262e+01  3.6723658142199149e+01  5.0430839400908198e+01  2.6036337790756448e+01  1.7790656298147189e+02  1.7399445231895439e+02  2.4071759463655550e+01  1.3580890680984522e+01  3.0717039768154933e+02  2.4117948907278961e+01  1.1101618536477392e+03  2.8963607538380767e+01  2.8645118836364290e+01  1.8208213049944646e+01  1.4811103474158861e+01  1.7824944237959019e+02  2.4527773132127276e+01  1.2023018935664263e+02  1.5306078391934224e+02  1.9797604255244984e+01  1.4546941531683430e+02  8.2144610500507298e+00  1.6721223943177577e+02  1.5437278612745379e+01  1.1611711949912008e+01  1.1953793680261826e+02  1.4377411798606806e+02  2.9683947371952775e+02  1.6560352121748743e+01  3.8898223697565979e+00  5.1776220005854675e+01  5.2195850919337872e+01  2.4044285918779852e+02  1.0328849530354788e+02  1.2084797767950330e+02  5.5641268469398383e+01  6.7166604610164597e+02  1.3536621406695772e+01  1.1678428921998220e+02  5.3657319439777481e+01  5.2763243487334670e+01  1.4093896869220879e+02  2.7382731183157741e+01  8.9759597663564445e+00  1.0146238048664976e+01  1.2340469245315166e+01  7.4594948958753102e+00  3.1101344563142060e+01  5.5750477427953218e+00  2.6802768096184618e+01  1.3235478611510631e+01  3.8470433778039549e+01  1.9955857745046654e+01  2.2554889748528634e+01  3.7538570782084477e+00  1.6605603553612188e+01  8.4898315344852321e+01  1.7554834813482842e+01  1.7421167267057562e+01  3.1377436055130147e+02  3.6646603843521369e+01  1.4989445304788029e+01  4.4977572112904298e+01  1.0346017714956795e+02  1.5177431742089270e+01  6.0026908946468636e+00  3.7469165244157638e+00  6.0340793490153786e+00  2.7020435511949820e+01  1.8312078300447276e+01  4.7121056285333385e+00  1.5015455970203227e+01  8.6894789566445105e+00  6.4820501036763689e+00  6.3936315859486728e+00  3.7072383140812741e+00  1.3109378174814188e+01  2.7001540412153879e+01  2.1502459451556007e+01  1.2552408908985523e+01  1.3384959784657528e+02  9.1296677771739390e+00  4.4234093361418463e+00  1.0801796562934371e+01  9.2561290049393072e+00  4.3023666637608926e+01  2.5002555462923674e+01  3.8524841888185684e+01  1.3653699850878647e+01  9.1352426045865887e+00  2.5259229675557389e+01  6.7395157514452279e+01  2.3454400707086545e+01  1.4977723813691092e+01  6.8652550236194756e+00  2.3394133227003984e+01  9.5618928927083910e+00  2.8190524851543337e+01  2.7619544136901787e+01  2.7165536149444122e+01  2.5282616011719096e+01  2.1195948222919498e+01  1.9530261618113968e+01  2.5602533896955087e+01  9.6277118865690046e+00  2.6635337164261256e+02  2.3627085161738982e+01  2.0238269692775471e+01  2.8581332219308482e+01  1.3465882585644781e+02  5.1397909727977030e+01  1.2311512518618625e+02  1.1469611318598633e+02  9.5720462974591555e+01  2.1408410277577865e+01  6.8191292427482324e+01  1.3968965619810087e+01  5.6856871566864413e+00  1.7145864305826162e+01  7.8364158106774141e+01  5.4834856918419215e+00  3.9834973633366397e+00  2.4902440646867706e+01  3.5307357607350383e+02  3.9176650294834934e+02  2.0334193189779363e+01  3.4376625629681278e+01  3.0754460541456407e+01  2.5167891175635088e+01  1.1380569297140786e+02  1.7525117806379665e+01  2.0850171670657765e+01  2.5988420826132636e+01  2.7554620685550642e+01  2.5575876827546341e+02  2.2676168106606088e+01  9.4571047524293697e+00  7.4692272023872562e+01  3.3202172852524981e+01  9.9837801301882205e+00  1.5469217746189653e+02  1.0802451229421675e+02  2.3131843146019996e+01  2.6349289369214787e+01  1.4194515410135571e+02  9.2588039345078972e+00  3.8099721989589139e+00  4.8884608088468893e+00  4.4275895667782512e+00  9.9794683239143502e+00  5.9147348844600156e+00  1.4510952667030338e+02  3.1185045850450779e+00  2.7156597676282541e+01  9.9714921519991755e+00  1.5867910500868604e+02  1.0810808444848053e+01  4.8081048155218618e+00  1.5136095687365591e+01  7.1840098050676190e+01  1.0021989382622139e+02  1.2498811375292493e+02  1.7049061436817831e+02  1.3207073693182238e+02  4.6702256605733110e+00  3.0187688846267787e+02  2.3557569264613119e+02  2.2232258165457051e+01  1.7303165327441800e+01  1.5828314388222040e+02  1.1798818978808615e+02  1.7166130733379609e+02  1.4750676374694399e+02  1.5305048601417349e+02  2.6826435134644804e+01  2.5738379144697248e+01  5.9790508093657131e+00  2.0764705253622232e+01  1.6084028363670484e+01  1.3114647267957928e+01  1.5713345341783591e+02  2.7909958498027009e+02  4.1043061726239038e+01  1.0070539711508260e+02  1.3105154952710137e+02  2.4756369077726953e+02  1.5689017445870141e+01  1.1405960838176574e+01  1.9536390509960000e+01  9.4636067016657748e+00  1.0537886962273829e+01  8.8979717162569898e+01  1.1665977865192760e+02  2.4452721608434683e+01  7.5315230636186953e+01  1.5766174731735583e+02  4.0149291912522294e+01  8.9461972870313105e+01  4.3241699593932672e+01  5.5566337533578167e+02  2.5235640600877918e+01  3.2021831887844683e+00  4.2603533984457428e+01  1.6166753957117743e+02  1.8614523952642259e+01  2.4893707353733188e+01  2.5600668328980176e+00  9.2100913330372141e+00  2.7600261011127483e+01  3.1991345658751271e+02  1.4056657652818899e+01  2.1138258842295431e+02  2.7696084854775702e+01  1.7888980188472468e+02  3.6002148611737923e+01  3.4740726615616836e+01  2.5870803637673230e+01  6.6604994834985769e+00  1.2451624576035418e+02  2.7022517017695662e+02  2.4128147643395715e+02  1.5899520032423530e+02  3.4512142427012066e+01  1.8547652760430330e+02  1.0773350038024333e+02  1.1392962304124468e+02  2.1721071451738720e+01  2.1175082534517109e+01  1.4674191915003718e+02  7.8137512552969085e+01  5.2236538610306411e+01  9.3693226374696394e+01  3.4790636732058566e+01  5.7346770782491156e+01  2.4074000312099688e+01  1.5082601057693310e+02  1.6951114195217968e+02  1.5808758516811579e+02  2.5705101143648918e+01  6.7279450128548334e+01  2.4721780696558316e+01  5.4806437063802464e+00  2.8553213655937366e+01  2.8341327283981496e+01  2.7538966645653741e+01  1.8139895957841485e+01  1.5511785109569535e+01  3.8147629096305984e+01  2.7653066007977660e+01  3.1340267329475324e+01  6.4482344686102238e+01  3.2128147833180449e+01  1.3280419102470356e+02  7.4716411283396269e+01  6.1277791993308995e+01  2.4549835397190829e+01  4.1671526051883568e+01  2.2212659305707270e+01  2.4483158932220910e+01  2.4511353836196264e+01  2.6827305754620689e+01  9.9366761514959364e+01  3.0074849106463415e+02  2.8266285641561783e+01  2.8351056466394247e+01  2.7790936604402074e+01  2.8117796378543336e+01  2.8354549409931035e+01  2.8296458480272200e+01  2.7168731741752612e+01  1.1789571209417002e+01  1.1491106917674868e+01  2.6803298862992317e+01  5.6425323345437040e+00  8.7170557743512219e+01  1.0779047555892909e+02  1.9207938827037189e+01  9.1825735118720772e+01  1.4714503223005451e+01  1.6842078442592623e+01  2.8837482480553028e+01  2.6987155682801244e+01  2.0680375797949822e+01  1.3689319418356479e+02  2.4965619764628645e+01  2.0493564668367981e+02  6.1253923623525699e+00  1.3384049294264457e+01  2.3755870317128537e+01  5.5333285645037682e+00  </DataArray> 
</PointData> 
</Piece>
</UnstructuredGrid>
</VTKFile>