<?xml version="1.0"?>
<VTKFile type="UnstructuredGrid"  version="0.1"  >
<UnstructuredGrid>
<Piece  NumberOfPoints="758" NumberOfCells="1386">
<Points>
<DataArray  type="Float64"  NumberOfComponents="3"  format="ascii">-1.570796326794897 3.048 0  -1.570796326794897 0 0  1.570796326794897 0 0  1.570796326794897 3.048 0  0 0 0  0 3.048 0  -1.570796326794897 1.524 0  1.570796326794897 1.524 0  -0.04609926118424437 1.524 0  0.7853981633974483 0 0  0.7623485328053261 2.262242601661362 0  -0.7853981633974483 0 0  -0.7853981633974483 3.048 0  0.392699081698724 0.7745759241961347 0  -1.570796326794897 0.762 0  -0.8084477939895706 2.0955 0  -0.68277245543452 0.8915343570675713 0  0.7853981633974483 3.048 0  0.778743707341909 1.468410948960538 0  2.780093748954961e-16 2.285302774973185 0  -1.570796326794897 2.286 0  1.570796326794897 0.762 0  1.570796326794897 2.286 0  -0.9375370967763674 1.47348297960658 0  0.9831575747762593 0.9003629142671278 0  -0.3926990816987241 0.4064697549061488 0  1.177419588818055 1.905 0  0.3692901340097942 1.880893989147954 0  -0.4920225169641509 2.564371687128368 0  0.3926990816987241 3.048 0  1.178097245096172 0 0  1.155705348811136 2.643920532523289 0  -1.178097245096172 3.048 0  -1.178097245096172 0 0  -0.1391296372266528 0.8873724190154949 0  -1.10527745318919 2.528282743051346 0  -0.9817477042468103 0.4742759268549471 0  -0.3416666987802651 1.923944646262223 0  -1.570796326794897 1.905 0  -1.156555306160469 1.030861936336814 0  0.7648449098493205 0.4764142032227 0  0.3926990816987241 0 0  -0.4820376416180818 1.326151321396512 0  0.06374421723344185 0.4545169930886408 0  0.1972735722393064 1.163324878565267 0  0.3900417218314142 2.566922767651637 0  1.570796326794897 0.381 0  1.188877612935585 1.295195418509834 0  1.179914028402171 0.5308585702661928 0  0.7660075594126428 1.865233039449035 0  0.6330293131838399 1.095171663968746 0  -1.201232463242587 2.144287146570887 0  -0.3926990816987241 0 0  -0.3926990816987241 3.048 0  1.178097245096172 3.048 0  0.7684409382397209 2.649499271873753 0  -1.236954997304436 1.7145 0  -0.1088573452899617 2.666651387486592 0  -1.570796326794897 1.143 0  -1.570796326794897 0.381 0  1.570796326794897 1.143 0  1.570796326794897 1.905 0  1.570796326794897 2.667 0  -1.570796326794897 2.667 0  -0.6730839067294777 1.743003792473746 0  1.199831389396789 2.275437921225198 0  0.3936837537618041 1.495643752599615 0  0.01539369169800942 1.928544709491661 0  0.4156551272669651 0.4219033286010089 0  0.3401546043708642 2.225103550856524 0  -0.3379897306391274 2.262671266279809 0  -1.23624174049596 0.7000907110925838 0  -1.265224057170889 1.360131453617764 0  -0.1224339018241312 1.210043725539656 0  1.289286200625578 0.9918698881707442 0  -0.7751142346211329 1.197848666814478 0  1.003546186550495 0.2660297686099683 0  0.1963495408493621 2.808538634159524 0  -0.8079023568959116 2.703551618159924 0  -0.3480226984353056 1.610059855391589 0  1.075147893506229 1.598068412087719 0  -0.8290627893979112 2.399544545867518 0  0.6965048925255637 0.7972100472372819 0  -1.257765094876752 0.3107645483825858 0  -0.6724835324263325 0.5684215760013651 0  -0.3995059642389676 0.7173610149075536 0  0.9136951972244611 1.187564504803626 0  -0.964259350608907 0.8095514380783081 0  -0.7565990314517038 0.2897049735129544 0  -0.9603859887840651 1.834914433810327 0  -0.1457055965762301 0.2521630699436873 0  0.1963495408493621 0.2041911848053476 0  0.6241974196550791 0.231695999252114 0  -0.4098815011312292 1.029160072548571 0  0.9592800715482012 2.452820690856482 0  0.9648684169153161 2.840751931000357 0  0.5890486225480862 3.048 0  0.164631037784102 1.698913854044779 0  0.5664480837073581 2.070920238540226 0  1.374107957806476 1.7145 0  0.9861079629544779 2.102471438422718 0  -1.374446785945534 3.048 0  -1.288827800789186 2.762781313597598 0  1.353232957571468 2.835634774483438 0  1.302158670506274 0.2650078124691045 0  0.1394669809465775 0.8907702620243092 0  -0.5631487221059602 2.830992231257464 0  1.372837635547072 2.483038902756259 0  -0.1493395228831287 0.618617259260858 0  -1.32327048447753 2.378769394323546 0  0.56080204725298 1.699622905297025 0  1.570796326794897 2.0955 0  0.5403456747786348 2.786446773498672 0  -0.9817477042468103 0 0  -0.5847039960246873 2.326882432521036 0  0.1225428891326576 2.526494255738436 0  -0.9817477042468103 3.048 0  -0.5522901559753841 2.071668786267058 0  -1.370864794258017 0.9075071715671403 0  -1.043891045637083 1.250611220450313 0  -0.1652643923634778 2.09141301924679 0  -1.044446740946883 2.764982067459552 0  -0.1610370079820225 1.763280243096074 0  -0.3136912237752232 2.810498886211121 0  0.5400974078002052 2.370472734822523 0  -0.7009161718414544 1.427243880175582 0  0.902907438200502 0.6735032943420574 0  -0.9879196222361604 0.2371379634274736 0  1.319268546233604 0.7412771512308228 0  0.5578373583610097 0.608241627784878 0  0.5756483102040615 1.332636919938113 0  -0.5281701577409 0.2032348774530744 0  -0.266729509930448 2.489223923247521 0  -1.570796326794897 0.5715 0  -0.2430656531629531 1.405631921096758 0  0.253622337931223 0.5884397663452474 0  1.284044721043478 1.50372037617638 0  1.570796326794897 1.3335 0  -0.9904333867980613 2.235882060371517 0  0.9871146764618406 1.395690276854986 0  -1.374446785945534 0 0  0.3981951765262902 1.020833864419675 0  0.1670583512016766 1.405384478716078 0  -1.330327693484763 1.938638984813805 0  0.2106653067452682 2.040805097078886 0  1.570796326794897 0.5715 0  1.334822181490566 2.081373939821734 0  -0.9303227889097604 1.033236710715967 0  -1.34639228476592 1.150776798768373 0  -1.570796326794897 0.1905 0  1.106697207481837 1.099709897393925 0  0.4137866939027022 0.2104288000383385 0  -1.570796326794897 2.0955 0  0.9761377489246634 0.4754251272674608 0  1.377108465632662 0.4605024587280874 0  1.108114944719677 0.7297638044096917 0  0.3695908229138113 1.285681859811955 0  0.9799112840676307 1.800306505551499 0  -0.001696842075803034 1.042028929293442 0  1.366537356420357 1.185723700290463 0  -1.385029840108318 0.47625 0  0.05842649915411911 0.6874537157920781 0  -1.183268988745763 0.4997334438341218 0  -0.6073502281622543 1.081347079085406 0  -1.026941765261019 2.031536576622642 0  -1.570796326794897 2.8575 0  0.8159726599830506 1.011928543199529 0  0.7652782693277244 2.849245002237192 0  -0.5252326280373281 1.520125074885265 0  0.7648326174724897 2.063743853392348 0  0.757099741434616 1.666331708950521 0  -0.1963495408493621 3.048 0  -0.005410422648647092 2.843333256403111 0  -1.395368347654653 2.19075 0  1.374446785945534 0 0  0.9817477042468103 3.048 0  0.1963495408493621 0 0  -0.1963495408493621 0 0  0.5890486225480862 0 0  0.1963495408493621 3.048 0  0.9817477042468103 0 0  1.374446785945534 3.048 0  -0.5890486225480862 3.048 0  -0.5890486225480862 0 0  -0.06865319188571758 2.471928549109083 0  1.159049337209348 2.838090892449816 0  0.5817075150535711 2.596909954318943 0  0.7656515661107315 2.455866896253367 0  0.9620790410056582 2.647119292933887 0  0.3676829480103987 1.68739481709134 0  -0.8886101495223063 2.878912500124773 0  -0.3317793704126089 0.1873756770788371 0  -1.383208664444332 2.577695923010364 0  -1.043597917648523 1.648216005744782 0  -1.362178343413552 1.546177620526679 0  -1.570796326794897 1.7145 0  -0.8462722504471433 1.648434957877788 0  -0.588076822054871 0.3899352838051667 0  1.570796326794897 2.8575 0  -1.570796326794897 0.9525 0  1.570796326794897 0.1905 0  1.570796326794897 1.7145 0  1.570796326794897 0.9525 0  -1.570796326794897 1.3335 0  1.570796326794897 2.4765 0  -1.570796326794897 2.4765 0  0.8103777117362174 0.287468585434799 0  -1.145334531235929 1.881885620422454 0  -0.8620560674467429 0.6361265362229395 0  -0.321688879263093 1.207848147265888 0  -0.7798551871678058 1.904240998338365 0  -0.4724954359209014 1.769587110195458 0  -0.667402576232105 2.495985359319255 0  0.5365063314111709 0.8945566719544227 0  0.1855702280441107 2.342745654422604 0  0.55510120733165 1.88540118775351 0  1.188295809121239 2.460939894898248 0  1.38587897409014 2.260870763688798 0  1.383978812419919 1.901097375082534 0  -0.2265735189171196 1.049795314962436 0  0.7387890113368257 1.246392780742437 0  0.5763234466275948 1.516457524623135 0  -0.203279258075353 0.4348372558382012 0  -1.179202350299698 1.523245956950107 0  -1.151844216720993 2.318990544544152 0  -1.410806081599612 0.6547540757597369 0  0.04190096621848406 2.108399609871347 0  0.5925649981629265 0.4343292987553075 0  0.2371113691258682 0.4102816185532077 0  1.334103818253725 2.657728219912091 0  0.9405077369493808 2.275181409651143 0  -0.633962040105568 2.669303984283053 0  -0.6045614816381242 1.904349918307267 0  1.159697673803787 2.079238591118184 0  -0.004643801590645341 1.347662554528907 0  0.3691400131247499 2.395423267764724 0  0.3855005143298051 2.055603978165229 0  0.01839821075864462 0.1788084577298442 0  -0.9568120219060965 2.61629404172056 0  0.1783135820912846 1.871116340262054 0  0.3649950158263953 2.745288921627024 0  -0.3142054567155264 0.5671999812317062 0  -0.4933549623779417 0.564740705097546 0  0.06092775470575962 2.685867440722903 0  -0.1801827362748675 2.337517890002858 0  -1.063355415037434 0.6386189748554 0  -1.205242865599393 0.8676070232612285 0  -0.4176020549597784 2.412196127179313 0  -0.3347051678178828 2.093252344225509 0  -1.427772711006951 0.2857500000000001 0  0.8835729338221293 0.1362887052191026 0  -0.6831011505337878 0.1389086130988801 0  -1.403875662049666 1.77648180985222 0  1.394165436236593 1.362588987767805 0  -0.5007942298153729 0.8700626692351643 0  -0.6093220848169366 0.7321530406295067 0  0.007534593095922887 1.760126887057542 0  -1.276272015520854 0.140425968067263 0  -0.7270478511000733 2.847016806985676 0  1.436331331726002 0.85725 0  -0.1770320080670663 1.927167796173981 0  0.7200726153501196 0.6345534912379586 0  -1.099983122078282 0.3577316115390257 0  0.2324759135153202 2.648405702327079 0  0.9054371869972004 1.582409569434113 0  0.5000672234640285 1.188708149930449 0  -0.340793734207542
[...]
<PointData  Scalars="Elastic Energy"> 
<DataArray  type="Float64"  Name="Elastic Energy"  format="ascii">4.9957676307799829e+02  2.7813743939420167e+01  2.7873898814352195e+01  4.8363939341327102e+02  8.8407123170380771e+01  2.3114621158669511e+03  2.6418249904502940e+01  2.6879871852384600e+01  2.7360708971754320e+02  5.0509671137510983e+00  8.7150684292430256e+01  5.0480410766464034e+00  1.4404582800899172e+01  2.9468192898564819e+01  2.8097595317309928e+01  1.4198219324577101e+02  2.1186056098121433e+01  1.2214296163962732e+01  1.0779624674501110e+02  3.0152989790440910e+02  3.4853108318495796e+00  2.8388953730970595e+01  2.1289497219218481e+00  4.1757912082567756e+01  2.9788245828475048e+00  2.8394186472529960e+01  4.3098079778698434e+01  3.6240129514060840e+01  2.3872254193138204e+01  7.3277449374503831e+01  2.1720552379000008e+01  1.9416840783013456e+02  1.1842151093144170e+02  2.1654502724928879e+01  1.9686022673179352e+01  1.9842111211792337e+02  6.2906314081751447e+00  5.5497426322989597e+01  1.4741880278508621e+01  7.4804804337824020e+00  6.7204564544765946e+00  2.4314978668133289e+01  1.8689695718222094e+02  3.0039557708193676e+01  1.6444270080483204e+02  6.4198928770465187e+01  2.7959587221024723e+01  6.5319804746341514e+00  1.5207429412147055e+01  1.6243009802350122e+02  4.8887230817127715e+01  7.1398996675519214e+01  2.3413954394513112e+01  6.8569549024112845e+01  1.1477691808456692e+02  1.6220653811480432e+01  1.1978828799648250e+01  3.1805199893368876e+02  2.7696600652367628e+01  2.7877414186119633e+01  2.7345483513213864e+01  1.5444798044579036e+01  7.7762226238618481e+01  7.9320239000932673e+01  1.5992633724503301e+02  1.0598640028811785e+02  1.0108532789381231e+02  2.8134236968020747e+02  2.7534368324960429e+01  8.2813333085802682e+01  8.9833365731137150e+01  1.6350222440846562e+01  1.0557472605905867e+01  1.8665386097847156e+02  1.6585882505288787e+01  3.6486156361336448e+01  1.0445709589213317e+01  1.9697497923298513e+02  2.0827353046539852e+01  3.8786152435016504e+01  2.2417146933241998e+01  8.3254015351544837e+01  1.6828577486470060e+01  2.1983100863892037e+01  1.3224597984485090e+01  2.7429238259886020e+01  1.0439991741833500e+01  3.0643533163492749e+00  5.9500500030499497e+00  1.1892188521836985e+02  4.4879720120976152e+01  4.5402734451820251e+01  1.0659852971387865e+01  6.0582730438616515e+01  1.3900429661837001e+02  4.9929348500381870e+01  2.4916960274996523e+01  1.9233190257967303e+02  2.0889290779741508e+01  1.4381882701766466e+01  1.6616626253096624e+02  2.6051814189994542e+02  2.0844336989304904e+02  2.2293735278312468e+02  2.3797203356920559e+01  1.9418073274774262e+01  1.8064767936727193e+01  6.6531564442800885e+01  2.0927369653539213e+01  6.5599964574962840e+01  1.1537849740933274e+02  6.7284966005369915e+00  1.7996273831411919e+01  1.3931411602251647e+01  8.3512813247122466e+00  2.7527625403182799e+02  3.8130182450373148e+01  2.1425929660184771e+01  2.2318440481888953e+01  4.0319552712750744e+00  2.1972475377537276e+02  1.1153154622339586e+02  2.0005106502517049e+02  1.0366782418048410e+02  9.9889054873860879e+00  1.2881055984217869e+02  3.8854497293036032e+00  1.0036513743053693e+01  2.0715210493665463e+01  2.1928312259175215e+01  1.5070846726250340e+02  1.6530487760061384e+01  1.4989639826438798e+02  2.7621020633649721e+01  9.7934093169626635e+01  2.5311625792014507e+01  1.0878955481335046e+01  2.6993252071936350e+01  1.6666854043077655e+02  1.8259300812918710e+01  2.5788341929948761e+01  6.0373012162616341e+01  1.4062768634500097e+02  1.3456097773454848e+01  1.8235669357006739e+02  2.8017304706101203e+01  1.9869331052239200e+01  4.8017522887176192e+00  1.9026817833791149e+01  2.6806081614376527e+01  4.3180810678980697e+00  2.6995383373833128e+01  7.0962272101011576e+00  6.1500856202602954e+00  2.4923561450649611e+01  8.2307244975478255e+00  1.8941543689776640e+02  1.0796728503262467e+02  7.1856297948545091e+01  2.0117061556354066e+01  2.5094376590202948e+01  1.5083997313551253e+01  1.5866674373393765e+01  5.0531434895875620e+01  1.3007371076205794e+02  2.7885439639630982e+02  1.3148059564994851e+01  3.6635012684709070e+00  1.6126259235473688e+02  1.3855820316817133e+02  1.8107547191842340e+02  2.8192590749085701e+02  4.6164186295455301e+02  1.5377639840812414e+01  2.5936745493850136e+01  3.9192070187235316e+01  6.4859233958101854e+01  6.5693915147197629e+01  4.6618442440846062e+00  2.2693393273895441e+02  1.4133530688945857e+01  2.6254193936969585e+02  2.5078467557229171e+01  4.3655731656492662e+00  3.0246357796763368e+02  1.5685004695567991e+02  6.3756062052068696e+00  4.1723269281907967e+01  9.2911046869644665e+01  3.0238021795252315e+01  1.7258964746154046e+01  3.4250497175412150e+01  8.4982269016594813e+01  4.0538720592039063e+01  1.6365022531620177e+01  2.2625724121059733e+01  1.3105223998444842e+02  1.6158073367267498e+01  2.3864498713363076e+02  2.8008349079939638e+01  2.6709875192274964e+01  2.2549517734067390e+01  2.8566357551214825e+01  2.7350411817928968e+01  1.9777875260697577e+01  1.6362524686026021e+01  5.2105918125031909e+00  4.7645354330041201e+01  4.4126705744729042e+00  1.6544005818611467e+02  1.6782669440024250e+02  3.3880833323064202e+01  1.0396551948691853e+01  3.2819566537733394e+01  2.2177383441592576e+02  5.2236982539658882e+01  1.5365868201332012e+02  2.3839354171545608e+01  1.1898778776966909e+01  6.9810744238261421e+01  5.5339358111393757e+01  1.8031656730402196e+02  3.1003107536883231e+01  6.6973474671739446e+00  1.5133586866964217e+02  2.5380617804821789e+01  2.9649560029642913e+02  1.6768856452153038e+01  3.2571740840843809e+01  1.5635521177988204e+02  1.6726141653534262e+02  2.1271312727126408e+00  8.2277854653176590e+01  8.4399139324645986e+01  2.1900989440517642e+02  7.4735601539527536e+01  4.0915314949445033e+01  5.2298955418694490e+01  1.1399997683924711e+02  1.8838016944548167e+02  7.1854891007046760e+01  2.7087466378116741e+01  2.4667454616324886e+01  3.6776605718945598e+02  2.2579478308815433e+02  7.2127125759412740e+00  1.2232159408383264e+01  4.8732827238806372e+01  8.0352417981574320e+01  2.6668662601346121e+01  6.8728926218983659e+00  5.3511198691396800e+00  1.4746011680201212e+01  2.0736268806265777e+01  3.3673193403895496e+01  2.1128039496443911e+01  2.8717100376458831e+02  2.2153394964755293e+01  1.3102276957035115e+00  2.5702690544151540e+01  1.9491820652909166e+02  1.1435633943152789e+01  1.3818763772568699e+01  1.8779230822837084e+02  8.8464838632483648e+01  1.1283267894443210e+02  9.3101039740783619e+01  1.7438009608704314e+02  3.1538381661425657e+01  5.1296379911558514e+00  2.0068598097339962e+01  5.3461245907529751e+01  9.5129666236942640e+01  1.9893329289318952e+01  4.7994320008059432e+01  7.1465040498952765e+00  7.6805039389928043e+00  1.5156136827270448e+01  1.3822172019134081e+01  1.8640737436842062e+02  5.7172165066878318e+00  1.6679764919885994e+02  1.3220405288825486e+02  1.6458479669927425e+02  1.0606149938313559e+01  3.3651089240453736e+01  2.2574246380402524e+01  5.5877194867056774e+00  5.6517682074717101e+01  1.7719040732733347e+02  2.4994517217107528e+01  5.8644276673582091e+01  2.2564484230712615e+01  9.0074208886418404e+01  1.9207488661552298e+02  1.0117106326272470e+02  2.6781734365138696e+01  1.2479696434965047e+02  4.1533772706251838e+01  7.3805618291926898e+00  1.2668532434600252e+02  4.9548119126147068e+00  1.7361064788704685e+01  2.5671016892837756e+01  2.4657651694965285e+01  2.2165193198036482e+02  1.5065482093707285e+01  3.1028261556670763e+01  2.5502191415818551e+01  7.4780628311268469e+00  1.7195399106525940e+02  2.8773049688436038e+02  1.3975434096363355e+02  1.7009561186064263e+02  4.0645159839135907e+00  3.7852254033906765e+00  4.3000983005403883e+00  2.2052209554374876e+01  2.5072790546169944e+01  2.6842501945846703e+01  3.6785950754648368e+01  3.5580775498453193e+01  2.4982267344174101e+01  3.7815234323665599e+01  3.4435836947205424e+01  2.4949189631450501e+01  9.0934715594953897e+00  1.1059499696659259e+02  2.1851570829798440e+01  4.3483175788700612e+02  2.4749531942231053e+02  2.6219767727203717e+01  1.0121848523074851e+01  1.5877494608220097e+01  7.2373068031510286e+00  1.1811743259310591e+01  5.4200365575595679e+00  3.9098184330715902e+01  3.7710016275657381e+01  2.0989346306486190e+01  4.5752575782362817e+00  6.2149834316227221e+01  1.2610647391099116e+01  1.0047310489284720e+02  5.3908968889538777e+01  1.7165978032731676e+01  1.6969885352908022e+02  6.0004663361057247e+01  3.5353248290872507e+01  1.4464793992552483e+01  1.6488080333625231e+02  2.0516115284016642e+01  3.2418188079982365e+01  9.8724568291483152e+01  1.4785743447595624e+02  1.7844062193245912e+02  1.5437239200322503e+02  1.4742774611084994e+02  6.8681802387656020e+01  1.1106012281818559e+01  3.2857769872793483e+01  1.4177206463312558e+02  1.6744555231495602e+02  6.6344396174031900e+01  1.2659216683599762e+02  9.9487530003897966e+00  1.0843114474412387e+01  5.1537792758106143e+01  1.2690128973481768e+01  1.2010965668476832e+01  3.0786048695938894e+02  1.3552719262590279e+02  1.3006489510362506e+01  2.9944006053694034e+02  6.6352625065763988e+01  7.3232760717665542e+01  9.6090393911427423e+00  7.9294391489964013e+00  2.5377876525644979e+01  2.0814633226683689e+01  6.5635922060955536e+01  2.2386269323154821e+01  1.2791157721363801e+01  3.2989328859330747e+01  1.7466206491679606e+02  3.7935952303438754e+01  3.6735039336863666e+00  2.4237881129323381e+02  4.8044811511590623e+01  8.5136073533766037e+01  1.1334101357755105e+02  6.5553132805492567e+01  1.4982987868194826e+01  1.4278320091122106e+02  1.7441352221672707e+02  1.8586209788176401e+01  9.1752864889041106e+01  1.0382830883740627e+02  1.4378932323619216e+02  2.4879250085046824e+01  1.5347594335528450e+01  8.3381549189209103e+00  3.0506187939954845e+01  1.7275067279071198e+01  1.8282520262012458e+01  2.2831692354331047e+01  1.3150718215144954e+02  7.6886388176683269e+01  2.5842171380184212e+01  2.2077974025450697e+01  9.8910459876904309e+00  3.5933234237862472e+01  2.8943198859365845e+02  1.3072719515121038e+01  1.9925712453748087e+01  5.2707721715249392e+01  2.5250071502885291e+01  1.1539758704767782e+02  1.6665334440713892e+02  1.0014425115672647e+02  2.0406421644846549e+02  4.5127790205057545e+00  1.7423207678742378e+02  3.3868268547636700e+02  4.4704223627980923e+01  1.7156414157059234e+02  3.8138872160968034e+00  7.4029603861226603e+00  1.9597092692465168e+01  1.5199219428303447e+01  2.5401812964639010e+01  7.9718655858084366e+00  2.7264053505292409e+01  2.8563001426282466e+00  1.2901302436672646e+01  2.9647441284349934e+01  1.5175545918224998e+01  1.8465527887303722e+02  6.0892208798874215e+01  8.6698264205484136e+01  1.4916752161869090e+02  1.4302123809316399e+02  5.3149849185767671e+01  1.6844258687659092e+02  1.8361987068260100e+02  1.0809124339866155e+02  1.1002865579519186e+01  2.1964454350027633e+01  2.2863071270131989e+01  1.0203980663412717e+02  1.2646191729313115e+01  2.8366461053948467e+02  2.4635146087857120e+02  2.6007700443781530e+01  1.3090805864512184e+01  2.6701485400069538e+02  1.4507335702610621e+02  8.0779382809957298e+01  5.1949532727351242e+00  7.8980770976381880e+00  3.4159657480787153e+00  1.4538044342361658e+01  3.7023110466392659e+01  2.0292485083971064e+02  2.5836640057396738e+02  1.1978677994662272e+02  7.1101867238188774e+01  1.3631238536469466e+01  1.0522351922252038e+02  4.5874789813877499e+01  6.1270207606306933e+01  3.2040830456267308e+01  1.8132862807740747e+02  1.7962376336074038e+02  2.5129902487315835e+01  1.3170086663660808e+01  4.0724159686617020e+02  2.1558997163373657e+01  1.1943680428395382e+03  2.7399275651546549e+01  2.8638313824939473e+01  1.8064805563856758e+01  1.3415960781320209e+01  1.8097503501737705e+02  2.5556521958081234e+01  1.3420760873687925e+02  1.5431466050263455e+02  1.9435745067921939e+01  1.7387470295104470e+02  8.6963238107368852e+00  1.6346857319225765e+02  1.5096538587367142e+01  1.1220308072140364e+01  1.2769288938588154e+02  1.4016046606047144e+02  3.0462985530452664e+02  1.2385728167907653e+01  4.5310239387193310e+00  5.3194614721510334e+01  6.5865000443524735e+01  2.4948515784597487e+02  1.1189750155009860e+02  1.2840938717071958e+02  1.1578506007470058e+02  7.0961318564374733e+02  1.3182862474319258e+01  1.3705467110226650e+02  5.5639030677274349e+01  6.4519464953398071e+01  1.5312540959001663e+02  2.6937395629865968e+01  9.1021873180071005e+00  1.3669495421234657e+01  1.0957728923327450e+01  8.9715157464252826e+00  3.5190151834388843e+01  5.8272266281597664e+00  2.7227168672817374e+01  1.8996913452362943e+01  5.0326205590041987e+01  1.7484323250072887e+01  2.0851730496621553e+01  3.5910641102343774e+00  1.8109944598691655e+01  1.0207437330626779e+02  1.8891127374567034e+01  1.6178410012140617e+01  3.8774731613964730e+02  3.6340677984555704e+01  1.4745511980798510e+01  4.2772756718283645e+01  1.1225955305873207e+02  1.5643344123130252e+01  5.5247872518535948e+00  3.4146168788893410e+00  6.5023559280929870e+00  3.9164073624416481e+01  1.7860698885432488e+01  4.3215958346404317e+00  1.7477528081227494e+01  9.1422229814233820e+00  6.0416955111811523e+00  6.0054827411903462e+00  3.8428993720773938e+00  9.8743965371947340e+00  2.6687386589705593e+01  2.1766982117376923e+01  1.2054148295637621e+01  1.6925898326842292e+02  8.7076499535673424e+00  4.1668629876498979e+00  1.0308508046675245e+01  8.8547706941642055e+00  4.2506317581024234e+01  2.7432949754358397e+01  3.7554008217521194e+01  1.6515029438433409e+01  9.6276575897966783e+00  2.4683266932315682e+01  4.9205278263146681e+01  2.3621204797205806e+01  1.4626323784174588e+01  5.8840812664575886e+00  2.0544795625931091e+01  1.2393374344941286e+01  2.7732558724049866e+01  2.7124030837127506e+01  2.6736009674138522e+01  2.4738933609824265e+01  2.0657067439841349e+01  1.9270150409280649e+01  2.5490511979294748e+01  9.1980773207356545e+00  2.6881536935337959e+02  2.3338300267192114e+01  1.5576317536762041e+01  2.8207686338201757e+01  1.5708817875720143e+02  6.8421463443892364e+01  1.4413725386410547e+02  1.2849294060163271e+02  1.0891557377198538e+02  2.0905054304441578e+01  5.4404364945683469e+01  1.3466745772590139e+01  5.7935042576327582e+00  2.6460967464661067e+01  7.3392665252198583e+01  8.3217041862128465e+00  3.5661184527809198e+00  2.4360359857436620e+01  3.6212462799544807e+02  4.0307032278015959e+02  2.0063402735127028e+01  4.6295406206638901e+01  3.8871220915309749e+01  2.9896537040700544e+01  1.1653908946948714e+02  1.9620723057800141e+01  1.9253429876471731e+01  2.5398258750906344e+01  2.6872911733995380e+01  2.6535897509731257e+02  2.4178625692918470e+01  9.2728566338617817e+00  8.1628218783212120e+01  4.0650393865981712e+01  9.4902053808013918e+00  1.5630832984051980e+02  9.2793895627237404e+01  1.9704999037158355e+01  2.6772350682528561e+01  1.5169583866520145e+02  9.0063835979621860e+00  3.4820604651724305e+00  4.5515386850465722e+00  4.2797091948595307e+00  1.1828398528733549e+01  6.2112504639079962e+00  1.5443581060129603e+02  3.6381813283097721e+00  3.6085823133755341e+01  1.2985125535246304e+01  1.6279984648622033e+02  7.9009151360700578e+00  3.3498450853988317e+00  1.4669437055829377e+01  9.9809785675196707e+01  1.5095644702751287e+02  1.6021593342353393e+02  1.7578348714645102e+02  1.5110256002823164e+02  4.7657235611672153e+00  3.0905074407201744e+02  2.4168735399124549e+02  2.3132959741753833e+01  1.8268832250870197e+01  1.7520829540386052e+02  9.0974850853760486e+01  1.8484882733389017e+02  1.4583795759253078e+02  1.4745085627504471e+02  2.7252578402218919e+01  3.5567614684151494e+01  6.2011570364472215e+00  2.3572746388068996e+01  2.1528815066733458e+01  1.3805320800527181e+01  1.6882099633195196e+02  2.8659365202683381e+02  4.0236535997122232e+01  1.3614769863763254e+02  1.6645402335567181e+02  2.5457571610400458e+02  1.5884675697314718e+01  1.1133390063710793e+01  1.9031355929318767e+01  9.4443076216719195e+00  1.0728837778834574e+01  8.8039306446605224e+01  1.1773438661155276e+02  2.1711776117489716e+01  7.0023704890136642e+01  1.6216172391985734e+02  4.1154047020018744e+01  8.8513712149262474e+01  4.2698506123879291e+01  5.8764478826180971e+02  2.4676026064415861e+01  3.4962571118316004e+00  4.3568876968700330e+01  1.6682060685102005e+02  1.8289661709798235e+01  2.4338551650150048e+01  2.8284829881536164e+00  9.1912422472090629e+00  2.6915394354348393e+01  3.9857166964351137e+02  1.4830898834089863e+01  2.3558642145366568e+02  2.7196121353565417e+01  1.6936868617493317e+02  4.6803259500317516e+01  4.2996060940847016e+01  2.5279823494793646e+01  6.4297526326629395e+00  1.1714496306286519e+02  2.7727099152326457e+02  2.4777123285984206e+02  1.6578409170514959e+02  2.8113458487058988e+01  1.9646686278134209e+02  9.7723568162088526e+01  1.0550159542551607e+02  2.4225386572808265e+01  1.6041542367786938e+01  1.4331533652009404e+02  6.8327009093418283e+01  4.4201789868698434e+01  8.5305836818421511e+01  3.5035761555083965e+01  3.9061397835860220e+01  3.0120946471373365e+01  1.6051257462453000e+02  1.6441886108926377e+02  1.5549038831559105e+02  2.1011693558360886e+01  5.7692884951478362e+01  1.9191570956619238e+01  5.4083872507030062e+00  2.8176965158133164e+01  2.7769607158140879e+01  2.6957937848817771e+01  1.8730762229685961e+01  1.5448687651064516e+01  3.6793469053847957e+01  2.5924066997769419e+01  3.0964043275852781e+01  8.4767566189175483e+01  3.1992858971472010e+01  1.3860934792452321e+02  8.7737019341360082e+01  7.4226281856437396e+01  2.4401636482796945e+01  3.4896657804297135e+01  2.6645281198474144e+01  2.4211360593692309e+01  2.4250695693608510e+01  3.9423001086294477e+01  1.3365416545680571e+02  3.9645208849967491e+02  2.7806174233773064e+01  2.8031246606203787e+01  2.7573383179954519e+01  2.7920929342214542e+01  2.8038270998069819e+01  2.7723921155725069e+01  2.7234349078807881e+01  9.5629960385303594e+00  9.2228325225052767e+00  2.6846192605889708e+01  8.8808578530704594e+00  7.6592217524637462e+01  9.9253056402111042e+01  1.8661193830704875e+01  8.1710813305612277e+01  1.7795503062638762e+01  2.1816430120757236e+01  3.5069252526824840e+01  3.0894057723937337e+01  1.6336545327109217e+01  1.3991746460390729e+02  2.5220518607423852e+01  2.2320999607916622e+02  6.4908098948922035e+00  1.0140903458861683e+01  2.3569439980050966e+01  6.6219995428627030e+00  </DataArray> 
</PointData> 
</Piece>
</UnstructuredGrid>
</VTKFile>